! Touchstone file exported from HFSS 2025.1.0
!        File:           C:/Users/Administrator/AppData/Local/Temp/tmp3c0v59w1.ansys/patch.aedt
!        Generated:      11:05:43 AM Nov 19, 2025
!        Design:         patch
!        Project:        patch
!        Setup:          Setup1
!        Solution:       Sweep1
!
# GHz S MA R 50.000000
! Terminal data exported
! Port[1] = ground_T1
2                              0.983388690893663 138.440589443195 
! Gamma         0                0                
! Port Impedance         50               0                
2.005                          0.982868460250036 138.127750297023 
! Gamma         0                0                
! Port Impedance         50               0                
2.01                           0.982327144085733 137.810326797716 
! Gamma         0                0                
! Port Impedance         50               0                
2.015                          0.981763718467328 137.488163321263 
! Gamma         0                0                
! Port Impedance         50               0                
2.02                           0.981177096922598 137.161097072731 
! Gamma         0                0                
! Port Impedance         50               0                
2.025                          0.98056612593441 136.828957669908 
! Gamma         0                0                
! Port Impedance         50               0                
2.03                           0.979929580060207 136.491566698229 
! Gamma         0                0                
! Port Impedance         50               0                
2.035                          0.979266156642067 136.148737234702 
! Gamma         0                0                
! Port Impedance         50               0                
2.04                           0.978574470068638 135.800273338363 
! Gamma         0                0                
! Port Impedance         50               0                
2.045                          0.977853045546265 135.445969504554 
! Gamma         0                0                
! Port Impedance         50               0                
2.05                           0.977100312332098 135.085610080088 
! Gamma         0                0                
! Port Impedance         50               0                
2.055                          0.976314596376994 134.718968636096 
! Gamma         0                0                
! Port Impedance         50               0                
2.06                           0.975494112320439 134.345807295042 
! Gamma         0                0                
! Port Impedance         50               0                
2.065                          0.974636954773518 133.965876008111 
! Gamma         0                0                
! Port Impedance         50               0                
2.07                           0.973741088819012 133.578911778762 
! Gamma         0                0                
! Port Impedance         50               0                
2.075                          0.972804339649986 133.184637827919 
! Gamma         0                0                
! Port Impedance         50               0                
2.08                           0.971824381259562 132.782762695785 
! Gamma         0                0                
! Port Impedance         50               0                
2.085                          0.970798724084968 132.372979274837 
! Gamma         0                0                
! Port Impedance         50               0                
2.09                           0.9697247014981  131.954963768023 
! Gamma         0                0                
! Port Impedance         50               0                
2.095                          0.968599455022853 131.528374565623 
! Gamma         0                0                
! Port Impedance         50               0                
2.1                            0.967419918145932 131.092851033606 
! Gamma         0                0                
! Port Impedance         50               0                
2.105                          0.96618279857281 130.648012205633 
! Gamma         0                0                
! Port Impedance         50               0                
2.11                           0.964884558763648 130.1934553701   
! Gamma         0                0                
! Port Impedance         50               0                
2.115                          0.963521394565141 129.72875454278  
! Gamma         0                0                
! Port Impedance         50               0                
2.12                           0.962089211733172 129.253458814718 
! Gamma         0                0                
! Port Impedance         50               0                
2.125                          0.960583600117661 128.767090564023 
! Gamma         0                0                
! Port Impedance         50               0                
2.13                           0.958999805254701 128.269143519099 
! Gamma         0                0                
! Port Impedance         50               0                
2.135                          0.95733269708179 127.759080659656 
! Gamma         0                0                
! Port Impedance         50               0                
2.14                           0.95557673545929 127.236331940529 
! Gamma         0                0                
! Port Impedance         50               0                
2.145                          0.953725932145001 126.700291821841 
! Gamma         0                0                
! Port Impedance         50               0                
2.15                           0.951773808828362 126.150316587532 
! Gamma         0                0                
! Port Impedance         50               0                
2.155                          0.94971335078622 125.585721432496 
! Gamma         0                0                
! Port Impedance         50               0                
2.16                           0.947536955672811 125.005777296713 
! Gamma         0                0                
! Port Impedance         50               0                
2.165                          0.945236376902444 124.409707422749 
! Gamma         0                0                
! Port Impedance         50               0                
2.17                           0.942802661024121 123.796683610752 
! Gamma         0                0                
! Port Impedance         50               0                
2.175                          0.940226078422878 123.165822142764 
! Gamma         0                0                
! Port Impedance         50               0                
2.18                           0.937496046613109 122.51617934557  
! Gamma         0                0                
! Port Impedance         50               0                
2.185                          0.934601045314894 121.846746758648 
! Gamma         0                0                
! Port Impedance         50               0                
2.19                           0.931528522426131 121.156445870893 
! Gamma         0                0                
! Port Impedance         50               0                
2.195                          0.928264789922239 120.444122386777 
! Gamma         0                0                
! Port Impedance         50               0                
2.2                            0.924794908633453 119.708539979472 
! Gamma         0                0                
! Port Impedance         50               0                
2.205                          0.921102560770087 118.948373485208 
! Gamma         0                0                
! Port Impedance         50               0                
2.21                           0.917169908992914 118.162201489866 
! Gamma         0                0                
! Port Impedance         50               0                
2.215                          0.912977440765085 117.348498255431 
! Gamma         0                0                
! Port Impedance         50               0                
2.22                           0.908503796682062 116.5056249307   
! Gamma         0                0                
! Port Impedance         50               0                
2.225                          0.903725581468599 115.631819987373 
! Gamma         0                0                
! Port Impedance         50               0                
2.23                           0.89861715637223 114.725188819568 
! Gamma         0                0                
! Port Impedance         50               0                
2.235                          0.893150411792172 113.783692441825 
! Gamma         0                0                
! Port Impedance         50               0                
2.24                           0.887294519188689 112.80513521766  
! Gamma         0                0                
! Port Impedance         50               0                
2.245                          0.881015661657247 111.787151547655 
! Gamma         0                0                
! Port Impedance         50               0                
2.25                           0.874276743071913 110.727191442297 
! Gamma         0                0                
! Port Impedance         50               0                
2.255                          0.86703707646458 109.622504899674 
! Gamma         0                0                
! Port Impedance         50               0                
2.26                           0.859252053388778 108.470125000118 
! Gamma         0                0                
! Port Impedance         50               0                
2.265                          0.850872797517396 107.266849616623 
! Gamma         0                0                
! Port Impedance         50               0                
2.27                           0.841845807763965 106.009221617247 
! Gamma         0                0                
! Port Impedance         50               0                
2.275                          0.832112598945391 104.693507397314 
! Gamma         0                0                
! Port Impedance         50               0                
2.28                           0.821609351594947 103.315673514603 
! Gamma         0                0                
! Port Impedance         50               0                
2.285                          0.810266587189912 101.87136109352  
! Gamma         0                0                
! Port Impedance         50               0                
2.29                           0.798008890999057 100.355857488804 
! Gamma         0                0                
! Port Impedance         50               0                
2.295                          0.784754712208254 98.7640644154756 
! Gamma         0                0                
! Port Impedance         50               0                
2.3                            0.770416280154235 97.0904612971775 
! Gamma         0                0                
! Port Impedance         50               0                
2.305                          0.754899686530605 95.3290618624269 
! Gamma         0                0                
! Port Impedance         50               0                
2.31                           0.73810519634419 93.4733608757256 
! Gamma         0                0                
! Port Impedance         50               0                
2.315                          0.719927864996454 91.5162660892169 
! Gamma         0                0                
! Port Impedance         50               0                
2.32                           0.700258554620514 89.4500076621693 
! Gamma         0                0                
! Port Impedance         50               0                
2.325                          0.678985458752475 87.2660128122739 
! Gamma         0                0                
! Port Impedance         50               0                
2.33                           0.655996259056113 84.9547263421206 
! Gamma         0                0                
! Port Impedance         50               0                
2.335                          0.631181049153829 82.5053462700968 
! Gamma         0                0                
! Port Impedance         50               0                
2.34                           0.604436166465821 79.9054252502263 
! Gamma         0                0                
! Port Impedance         50               0                
2.345                          0.575669071905101 77.1402577766437 
! Gamma         0                0                
! Port Impedance         50               0                
2.35                           0.544804410818037 74.1919211580055 
! Gamma         0                0                
! Port Impedance         50               0                
2.355                          0.511791385698004 71.0377474416209 
! Gamma         0                0                
! Port Impedance         50               0                
2.36                           0.476612597949364 67.6478391404143 
! Gamma         0                0                
! Port Impedance         50               0                
2.365                          0.439294635747018 63.9809314731018 
! Gamma         0                0                
! Port Impedance         50               0                
2.37                           0.399921045154262 59.9772896045321 
! Gamma         0                0                
! Port Impedance         50               0                
2.375                          0.35864926941712 55.5460452882766 
! Gamma         0                0                
! Port Impedance         50               0                
2.38                           0.31573554197169 50.5415279224399 
! Gamma         0                0                
! Port Impedance         50               0                
2.385                          0.271577911385783 44.7164103341438 
! Gamma         0                0                
! Port Impedance         50               0                
2.39                           0.226804507510896 37.6226097163215 
! Gamma         0                0                
! Port Impedance         50               0                
2.395                          0.182484318214518 28.387597756605  
! Gamma         0                0                
! Port Impedance         50               0                
2.4                            0.140695377136608 15.2006104638393 
! Gamma         0                0                
! Port Impedance         50               0                
2.405                          0.106107332713681 -5.55652283493214 
! Gamma         0                0                
! Port Impedance         50               0                
2.41                           0.0887537320178754 -37.4098936682365 
! Gamma         0                0                
! Port Impedance         50               0                
2.415                          0.0983649859933319 -71.6007680123214 
! Gamma         0                0                
! Port Impedance         50               0                
2.42                           0.128523869999024 -95.3622173737716 
! Gamma         0                0                
! Port Impedance         50               0                
2.425                          0.1676934801641  -110.184645087674 
! Gamma         0                0                
! Port Impedance         50               0                
2.43                           0.209937315259913 -120.215949625558 
! Gamma         0                0                
! Port Impedance         50               0                
2.435                          0.252725170770957 -127.696780350596 
! Gamma         0                0                
! Port Impedance         50               0                
2.44                           0.294858513590818 -133.699838447836 
! Gamma         0                0                
! Port Impedance         50               0                
2.445                          0.335694138788799 -138.766594626866 
! Gamma         0                0                
! Port Impedance         50               0                
2.45                           0.374860418990522 -143.191657673917 
! Gamma         0                0                
! Port Impedance         50               0                
2.455                          0.412140837950917 -147.146919815507 
! Gamma         0                0                
! Port Impedance         50               0                
2.46                           0.447418700226625 -150.739057690431 
! Gamma         0                0                
! Port Impedance         50               0                
2.465                          0.480646579666382 -154.038025935416 
! Gamma         0                0                
! Port Impedance         50               0                
2.47                           0.511826929181573 -157.092060824533 
! Gamma         0                0                
! Port Impedance         50               0                
2.475                          0.540998405032334 -159.935997474473 
! Gamma         0                0                
! Port Impedance         50               0                
2.48                           0.568225567436798 -162.596082139004 
! Gamma         0                0                
! Port Impedance         50               0                
2.485                          0.593590870543738 -165.092857977331 
! Gamma         0                0                
! Port Impedance         50               0                
2.49                           0.617188374689155 -167.442949053288 
! Gamma         0                0                
! Port Impedance         50               0                
2.495                          0.639118834894349 -169.660193172267 
! Gamma         0                0                
! Port Impedance         50               0                
2.5                            0.659485917516811 -171.756379215537 
! Gamma         0                0                
! Port Impedance         50               0                
2.505                          0.67839334540488 -173.741738682605 
! Gamma         0                0                
! Port Impedance         50               0                
2.51                           0.695942801516929 -175.625281441772 
! Gamma         0                0                
! Port Impedance         50               0                
2.515                          0.712232443944764 -177.41503098132 
! Gamma         0                0                
! Port Impedance         50               0                
2.52                           0.727355905907563 -179.118193748559 
! Gamma         0                0                
! Port Impedance         50               0                
2.525                          0.741401673618233 179.258715457851 
! Gamma         0                0                
! Port Impedance         50               0                
2.53                           0.754452752895516 177.709777909369 
! Gamma         0                0                
! Port Impedance         50               0                
2.535                          0.76658655167405 176.229595982361 
! Gamma         0                0                
! Port Impedance         50               0                
2.54                           0.777874919897814 174.813232749617 
! Gamma         0                0                
! Port Impedance         50               0                
2.545                          0.788384300573913 173.456162096388 
! Gamma         0                0                
! Port Impedance         50               0                
2.55                           0.798175956062694 172.154226643467 
! Gamma         0                0                
! Port Impedance         50               0                
2.555                          0.807306242137941 170.903601620446 
! Gamma         0                0                
! Port Impedance         50               0                
2.56                           0.815826909175143 169.7007633997   
! Gamma         0                0                
! Port Impedance         50               0                
2.565                          0.823785415246621 168.542461778613 
! Gamma         0                0                
! Port Impedance         50               0                
2.57                           0.831225240147421 167.425695350067 
! Gamma         0                0                
! Port Impedance         50               0                
2.575                          0.838186192655682 166.347689471963 
! Gamma         0                0                
! Port Impedance         50               0                
2.58                           0.844704705832297 165.305876463404 
! Gamma         0                0                
! Port Impedance         50               0                
2.585                          0.850814117046013 164.297877736247 
! Gamma         0                0                
! Port Impedance         50               0                
2.59                           0.856544930804997 163.321487628048 
! Gamma         0                0                
! Port Impedance         50               0                
2.595                          0.861925063492763 162.374658743735 
! Gamma         0                0                
! Port Impedance         50               0                
2.6                            0.866980069832951 161.455488643911 
! Gamma         0                0                
! Port Impedance         50               0                
2.605                          0.871733351413369 160.562207740898 
! Gamma         0                0                
! Port Impedance         50               0                
2.61                           0.876206347939581 159.693168281729 
! Gamma         0                0                
! Port Impedance         50               0                
2.615                          0.88041871210473 158.846834311858 
! Gamma         0                0                
! Port Impedance         50               0                
2.62                           0.884388469088153 158.02177252533  
! Gamma         0                0                
! Port Impedance         50               0                
2.625                          0.888132161755612 157.216643917249 
! Gamma         0                0                
! Port Impedance         50               0                
2.63                           0.891664982647798 156.430196163038 
! Gamma         0                0                
! Port Impedance         50               0                
2.635                          0.895000893825436 155.661256656556 
! Gamma         0                0                
! Port Impedance         50               0                
2.64                           0.898152735599491 154.908726145766 
! Gamma         0                0                
! Port Impedance         50               0                
2.645                          0.901132325121551 154.171572910596 
! Gamma         0                0                
! Port Impedance         50               0                
2.65                           0.903950545748113 153.448827432908 
! Gamma         0                0                
! Port Impedance         50               0                
2.655                          0.906617428027441 152.739577513268 
! Gamma         0                0                
! Port Impedance         50               0                
2.66                           0.909142223091713 152.042963793467 
! Gamma         0                0                
! Port Impedance         50               0                
2.665                          0.911533469172392 151.358175647641 
! Gamma         0                0                
! Port Impedance         50               0                
2.67                           0.913799051894434 150.684447408317 
! Gamma         0                0                
! Port Impedance         50               0                
2.675                          0.915946258945926 150.021054896854 
! Gamma         0                0                
! Port Impedance         50               0                
2.68                           0.917981829664552 149.367312230633 
! Gamma         0                0                
! Port Impedance         50               0                
2.685                          0.919912000031042 148.722568881916 
! Gamma         0                0                
! Port Impedance         50               0                
2.69                           0.921742543512631 148.08620696561  
! Gamma         0                0                
! Port Impedance         50               0                
2.695                          0.923478808156332 147.457638735309 
! Gamma         0                0                
! Port Impedance         50               0                
2.7                            0.925125750292509 146.836304268875 
! Gamma         0                0                
! Port Impedance         50               0                
2.705                          0.926687965173427 146.221669326537 
! Gamma         0                0                
! Port Impedance         50               0                
2.71                           0.928169714839089 145.613223366047 
! Gamma         0                0                
! Port Impedance         50               0                
2.715                          0.929574953473364 145.01047770083  
! Gamma         0                0                
! Port Impedance         50               0                
2.72                           0.930907350487022 144.412963788333 
! Gamma         0                0                
! Port Impedance         50               0                
2.725                          0.932170311540461 143.820231636916 
! Gamma         0                0                
! Port Impedance         50               0                
2.73                           0.933366997697494 143.231848320663 
! Gamma         0                0                
! Port Impedance         50               0                
2.735                          0.934500342882295 142.647396592414 
! Gamma         0                0                
! Port Impedance         50               0                
2.74                           0.935573069794281 142.066473586163 
! Gamma         0                0                
! Port Impedance         50               0                
2.745                          0.936587704420121 141.48868960072  
! Gamma         0                0                
! Port Impedance         50               0                
2.75                           0.937546589268095 140.91366695721  
! Gamma         0                0                
! Port Impedance         50               0                
2.755                          0.938451895437413 140.341038923605 
! Gamma         0                0                
! Port Impedance         50               0                
2.76                           0.939305633623845 139.770448700033 
! Gamma         0                0                
! Port Impedance         50               0                
2.765                          0.940109664152782 139.201548459096 
! Gamma         0                0                
! Port Impedance         50               0                
2.77                           0.940865706121764 138.633998435892 
! Gamma         0                0                
! Port Impedance         50               0                
2.775                          0.941575345726196 138.067466062822 
! Gamma         0                0                
! Port Impedance         50               0                
2.78                           0.942240043834625 137.501625144634 
! Gamma         0                0                
! Port Impedance         50               0                
2.785                          0.942861142873159 136.936155069463 
! Gamma         0                0                
! Port Impedance         50               0                
2.79                           0.943439873072637 136.37074005194  
! Gamma         0                0                
! Port Impedance         50               0                
2.795                          0.943977358126626 135.805068404663 
! Gamma         0                0                
! Port Impedance         50               0                
2.8                            0.944474620303375 135.238831834583 
! Gamma         0                0                
! Port Impedance         50               0                
2.805                          0.944932585050382 134.671724761046 
! Gamma         0                0                
! Port Impedance         50               0                
2.81                           0.945352085126074 134.103443652405 
! Gamma         0                0                
! Port Impedance         50               0                
2.815                          0.945733864289448 133.533686378275 
! Gamma         0                0                
! Port Impedance         50               0                
2.82                           0.946078580575042 132.962151574648 
! Gamma         0                0                
! Port Impedance         50               0                
2.825                          0.946386809177548 132.388538019178 
! Gamma         0                0                
! Port Impedance         50               0                