! Touchstone file exported from HFSS 2025.1.0
!        File:           C:/Users/Administrator/AppData/Local/Temp/tmphzuqkpe4.ansys/patch.aedt
!        Generated:      07:17:54 PM Nov 17, 2025
!        Design:         patch
!        Project:        patch
!        Setup:          Setup1
!        Solution:       Sweep1
!
# GHz S MA R 50.000000
! Terminal data exported
! Port[1] = ground_T1
2                              0.944673366751666 -176.639283708133 
! Gamma         0                0                
! Port Impedance         50               0                
2.005                          0.955051628284961 -178.724772418999 
! Gamma         0                0                
! Port Impedance         50               0                
2.01                           0.963066212622551 179.435904606854 
! Gamma         0                0                
! Port Impedance         50               0                
2.015                          0.969303536489134 177.802923694456 
! Gamma         0                0                
! Port Impedance         50               0                
2.02                           0.974192915239549 176.343794005035 
! Gamma         0                0                
! Port Impedance         50               0                
2.025                          0.978051150890752 175.031976357779 
! Gamma         0                0                
! Port Impedance         50               0                
2.03                           0.981114051579932 173.845720077047 
! Gamma         0                0                
! Port Impedance         50               0                
2.035                          0.983558703785469 172.767116558705 
! Gamma         0                0                
! Port Impedance         50               0                
2.04                           0.985519269306527 171.781342298284 
! Gamma         0                0                
! Port Impedance         50               0                
2.045                          0.987098258781515 170.876058242815 
! Gamma         0                0                
! Port Impedance         50               0                
2.05                           0.988374637824516 170.040934423003 
! Gamma         0                0                
! Port Impedance         50               0                
2.055                          0.989409703931418 169.26727350604  
! Gamma         0                0                
! Port Impedance         50               0                
2.06                           0.990251383792979 168.547711913108 
! Gamma         0                0                
! Port Impedance         50               0                
2.065                          0.99093740270344 167.875981616465 
! Gamma         0                0                
! Port Impedance         50               0                
2.07                           0.991497641998491 167.246719433888 
! Gamma         0                0                
! Port Impedance         50               0                
2.075                          0.991955907070807 166.655313590585 
! Gamma         0                0                
! Port Impedance         50               0                
2.08                           0.992331263939508 166.097779625127 
! Gamma         0                0                
! Port Impedance         50               0                
2.085                          0.992639057412816 165.570659498612 
! Gamma         0                0                
! Port Impedance         50               0                
2.09                           0.99289169238467 165.070939137144 
! Gamma         0                0                
! Port Impedance         50               0                
2.095                          0.993099237558639 164.595980690303 
! Gamma         0                0                
! Port Impedance         50               0                
2.1                            0.993269895056444 164.143466596989 
! Gamma         0                0                
! Port Impedance         50               0                
2.105                          0.993410368007601 163.71135317279  
! Gamma         0                0                
! Port Impedance         50               0                
2.11                           0.993526150003223 163.297831914004 
! Gamma         0                0                
! Port Impedance         50               0                
2.115                          0.99362175431369 162.901297086441 
! Gamma         0                0                
! Port Impedance         50               0                
2.12                           0.993700896378856 162.520318457494 
! Gamma         0                0                
! Port Impedance         50               0                
2.125                          0.993766639833628 162.153618257076 
! Gamma         0                0                
! Port Impedance         50               0                
2.13                           0.993821513915882 161.800051631433 
! Gamma         0                0                
! Port Impedance         50               0                
2.135                          0.993867608293245 161.458589994695 
! Gamma         0                0                
! Port Impedance         50               0                
2.14                           0.993906649979984 161.128306794655 
! Gamma         0                0                
! Port Impedance         50               0                
2.145                          0.993940065978976 160.808365298278 
! Gamma         0                0                
! Port Impedance         50               0                
2.15                           0.993969034492688 160.498008073596 
! Gamma         0                0                
! Port Impedance         50               0                
2.155                          0.993994526939661 160.19654790189  
! Gamma         0                0                
! Port Impedance         50               0                
2.16                           0.994017342543923 159.903359900259 
! Gamma         0                0                
! Port Impedance         50               0                
2.165                          0.994038136900785 159.617874672134 
! Gamma         0                0                
! Port Impedance         50               0                
2.17                           0.994057445638345 159.339572333798 
! Gamma         0                0                
! Port Impedance         50               0                
2.175                          0.994075704071445 159.067977289889 
! Gamma         0                0                
! Port Impedance         50               0                
2.18                           0.994093263569343 158.802653651358 
! Gamma         0                0                
! Port Impedance         50               0                
2.185                          0.994110405219609 158.54320120616  
! Gamma         0                0                
! Port Impedance         50               0                
2.19                           0.994127351260465 158.289251866932 
! Gamma         0                0                
! Port Impedance         50               0                
2.195                          0.99414427466575 158.040466531458 
! Gamma         0                0                
! Port Impedance         50               0                
2.2                            0.994161307196171 157.796532301342 
! Gamma         0                0                
! Port Impedance         50               0                
2.205                          0.994178546173806 157.557160012376 
! Gamma         0                0                
! Port Impedance         50               0                
2.21                           0.99419606019101 157.322082036807 
! Gamma         0                0                
! Port Impedance         50               0                
2.215                          0.99421389392778 157.091050323393 
! Gamma         0                0                
! Port Impedance         50               0                
2.22                           0.994232072221493 156.863834645916 
! Gamma         0                0                
! Port Impedance         50               0                
2.225                          0.994250603508328 156.640221034852 
! Gamma         0                0                
! Port Impedance         50               0                
2.23                           0.99426948273553 156.420010370352 
! Gamma         0                0                
! Port Impedance         50               0                
2.235                          0.994288693827208 156.203017117581 
! Gamma         0                0                
! Port Impedance         50               0                
2.24                           0.994308211772705 155.989068187965 
! Gamma         0                0                
! Port Impedance         50               0                
2.245                          0.994328004395411 155.778001912026 
! Gamma         0                0                
! Port Impedance         50               0                
2.25                           0.994348033850539 155.569667111307 
! Gamma         0                0                
! Port Impedance         50               0                
2.255                          0.994368257892735 155.363922258453 
! Gamma         0                0                
! Port Impedance         50               0                
2.26                           0.994388630947938 155.160634715869 
! Gamma         0                0                
! Port Impedance         50               0                
2.265                          0.994409105018558 154.959680044548 
! Gamma         0                0                
! Port Impedance         50               0                
2.27                           0.994429630446606 154.760941375669 
! Gamma         0                0                
! Port Impedance         50               0                
2.275                          0.994450156555603 154.564308838434 
! Gamma         0                0                
! Port Impedance         50               0                
2.28                           0.994470632189003 154.369679038378 
! Gamma         0                0                
! Port Impedance         50               0                
2.285                          0.994491006160183 154.176954581063 
! Gamma         0                0                
! Port Impedance         50               0                
2.29                           0.99451122762684 153.986043636625 
! Gamma         0                0                
! Port Impedance         50               0                
2.295                          0.994531246400738 153.796859541161 
! Gamma         0                0                
! Port Impedance         50               0                
2.3                            0.994551013202148 153.609320431379 
! Gamma         0                0                
! Port Impedance         50               0                
2.305                          0.994570479866998 153.423348909342 
! Gamma         0                0                
! Port Impedance         50               0                
2.31                           0.994589599513558 153.238871734453 
! Gamma         0                0                
! Port Impedance         50               0                
2.315                          0.994608326674547 153.055819540139 
! Gamma         0                0                
! Port Impedance         50               0                
2.32                           0.994626617399694 152.874126572984 
! Gamma         0                0                
! Port Impedance         50               0                
2.325                          0.994644429333072 152.69373045224  
! Gamma         0                0                
! Port Impedance         50               0                
2.33                           0.994661721768937 152.514571947921 
! Gamma         0                0                
! Port Impedance         50               0                
2.335                          0.994678455689262 152.336594775807 
! Gamma         0                0                
! Port Impedance         50               0                
2.34                           0.994694593785715 152.159745407896 
! Gamma         0                0                
! Port Impedance         50               0                
2.345                          0.994710100468464 151.983972896963 
! Gamma         0                0                
! Port Impedance         50               0                
2.35                           0.99472494186384 151.809228714014 
! Gamma         0                0                
! Port Impedance         50               0                
2.355                          0.994739085802625 151.635466597564 
! Gamma         0                0                
! Port Impedance         50               0                
2.36                           0.994752501800477 151.46264241373  
! Gamma         0                0                
! Port Impedance         50               0                
2.365                          0.994765161031802 151.290714026269 
! Gamma         0                0                
! Port Impedance         50               0                
2.37                           0.9947770362982  151.119641175733 
! Gamma         0                0                
! Port Impedance         50               0                
2.375                          0.994788101992452 150.949385367019 
! Gamma         0                0                
! Port Impedance         50               0                
2.38                           0.994798334058884 150.779909764634 
! Gamma         0                0                
! Port Impedance         50               0                
2.385                          0.994807709950834 150.611179095073 
! Gamma         0                0                
! Port Impedance         50               0                
2.39                           0.994816208585828 150.443159555756 
! Gamma         0                0                
! Port Impedance         50               0                
2.395                          0.994823810299008 150.275818730012 
! Gamma         0                0                
! Port Impedance         50               0                
2.4                            0.994830496795259 150.109125507658 
! Gamma         0                0                
! Port Impedance         50               0                
2.405                          0.994836251100423 149.943050010732 
! Gamma         0                0                
! Port Impedance         50               0                
2.41                           0.994841057511942 149.777563524024 
! Gamma         0                0                
! Port Impedance         50               0                
2.415                          0.99484490154921 149.612638430017 
! Gamma         0                0                
! Port Impedance         50               0                
2.42                           0.99484776990386 149.44824814794  
! Gamma         0                0                
! Port Impedance         50               0                
2.425                          0.994849650390215 149.28436707662  
! Gamma         0                0                
! Port Impedance         50               0                
2.43                           0.994850531896055 149.120970540871 
! Gamma         0                0                
! Port Impedance         50               0                
2.435                          0.99485040433385 148.958034741156 
! Gamma         0                0                
! Port Impedance         50               0                
2.44                           0.994849258592576 148.795536706305 
! Gamma         0                0                
! Port Impedance         50               0                
2.445                          0.994847086490216 148.63345424906  
! Gamma         0                0                
! Port Impedance         50               0                
2.45                           0.994843880727024 148.471765924272 
! Gamma         0                0                
! Port Impedance         50               0                
2.455                          0.994839634839613 148.310450989545 
! Gamma         0                0                
! Port Impedance         50               0                
2.46                           0.994834343155921 148.14948936818  
! Gamma         0                0                
! Port Impedance         50               0                
2.465                          0.994828000751095 147.988861614257 
! Gamma         0                0                
! Port Impedance         50               0                
2.47                           0.994820603404319 147.828548879704 
! Gamma         0                0                
! Port Impedance         50               0                
2.475                          0.994812147556603 147.668532883242 
! Gamma         0                0                
! Port Impedance         50               0                
2.48                           0.994802630269557 147.50879588106  
! Gamma         0                0                
! Port Impedance         50               0                
2.485                          0.994792049185137 147.349320639126 
! Gamma         0                0                
! Port Impedance         50               0                
2.49                           0.994780402486386 147.190090407017 
! Gamma         0                0                
! Port Impedance         50               0                
2.495                          0.994767688859141 147.031088893177 
! Gamma         0                0                
! Port Impedance         50               0                
2.5                            0.994753907454722 146.872300241507 
! Gamma         0                0                
! Port Impedance         50               0                
2.505                          0.99473905785357 146.713709009213 
! Gamma         0                0                
! Port Impedance         50               0                
2.51                           0.994723140029836 146.555300145821 
! Gamma         0                0                
! Port Impedance         50               0                
2.515                          0.994706154316888 146.397058973296 
! Gamma         0                0                
! Port Impedance         50               0                
2.52                           0.994688101373735 146.238971167194 
! Gamma         0                0                
! Port Impedance         50               0                
2.525                          0.994668982152329 146.081022738784 
! Gamma         0                0                
! Port Impedance         50               0                
2.53                           0.994648797865734 145.923200018079 
! Gamma         0                0                
! Port Impedance         50               0                
2.535                          0.994627549957138 145.765489637726 
! Gamma         0                0                
! Port Impedance         50               0                
2.54                           0.99460524006968 145.607878517705 
! Gamma         0                0                
! Port Impedance         50               0                
2.545                          0.994581870017067 145.450353850776 
! Gamma         0                0                
! Port Impedance         50               0                
2.55                           0.99455744175496 145.29290308865  
! Gamma         0                0                
! Port Impedance         50               0                
2.555                          0.994531957353104 145.135513928822 
! Gamma         0                0                
! Port Impedance         50               0                
2.56                           0.994505418968163 144.978174302046 
! Gamma         0                0                
! Port Impedance         50               0                
2.565                          0.99447782881726 144.820872360396 
! Gamma         0                0                
! Port Impedance         50               0                
2.57                           0.994449189152164 144.663596465897 
! Gamma         0                0                
! Port Impedance         50               0                
2.575                          0.994419502234128 144.506335179682 
! Gamma         0                0                
! Port Impedance         50               0                
2.58                           0.99438877030933 144.349077251648 
! Gamma         0                0                
! Port Impedance         50               0                
2.585                          0.994356995584905 144.191811610584 
! Gamma         0                0                
! Port Impedance         50               0                
2.59                           0.994324180205538 144.034527354749 
! Gamma         0                0                
! Port Impedance         50               0                
2.595                          0.994290326230589 143.877213742862 
! Gamma         0                0                
! Port Impedance         50               0                
2.6                            0.994255435611737 143.719860185494 
! Gamma         0                0                
! Port Impedance         50               0                
2.605                          0.994219510171102 143.562456236839 
! Gamma         0                0                
! Port Impedance         50               0                
2.61                           0.994182551579837 143.404991586828 
! Gamma         0                0                
! Port Impedance         50               0                
2.615                          0.994144561337159 143.247456053592 
! Gamma         0                0                
! Port Impedance         50               0                
2.62                           0.99410554074979 143.089839576233 
! Gamma         0                0                
! Port Impedance         50               0                
2.625                          0.9940654909118  142.932132207895 
! Gamma         0                0                
! Port Impedance         50               0                
2.63                           0.994024412684815 142.774324109126 
! Gamma         0                0                
! Port Impedance         50               0                
2.635                          0.993982306678576 142.6164055415   
! Gamma         0                0                
! Port Impedance         50               0                
2.64                           0.993939173231823 142.458366861499 
! Gamma         0                0                
! Port Impedance         50               0                
2.645                          0.993895012393489 142.300198514631 
! Gamma         0                0                
! Port Impedance         50               0                
2.65                           0.993849823904178 142.141891029783 
! Gamma         0                0                
! Port Impedance         50               0                
2.655                          0.993803607177897 141.983435013781 
! Gamma         0                0                
! Port Impedance         50               0                
2.66                           0.993756361284054 141.824821146161 
! Gamma         0                0                
! Port Impedance         50               0                
2.665                          0.993708084929655 141.66604017413  
! Gamma         0                0                
! Port Impedance         50               0                
2.67                           0.993658776441727 141.507082907715 
! Gamma         0                0                
! Port Impedance         50               0                
2.675                          0.993608433749913 141.347940215081 
! Gamma         0                0                
! Port Impedance         50               0                
2.68                           0.993557054369239 141.188603018015 
! Gamma         0                0                
! Port Impedance         50               0                
2.685                          0.993504635383034 141.029062287572 
! Gamma         0                0                
! Port Impedance         50               0                
2.69                           0.993451173425969 140.869309039858 
! Gamma         0                0                
! Port Impedance         50               0                
2.695                          0.99339666466722 140.709334331968 
! Gamma         0                0                
! Port Impedance         50               0                
2.7                            0.99334110479372 140.549129258041 
! Gamma         0                0                
! Port Impedance         50               0                
2.705                          0.993284488993485 140.388684945456 
! Gamma         0                0                
! Port Impedance         50               0                
2.71                           0.993226811939014 140.227992551141 
! Gamma         0                0                
! Port Impedance         50               0                
2.715                          0.993168067770714 140.067043257991 
! Gamma         0                0                
! Port Impedance         50               0                
2.72                           0.993108250080368 139.905828271406 
! Gamma         0                0                
! Port Impedance         50               0                
2.725                          0.993047351894603 139.744338815919 
! Gamma         0                0                
! Port Impedance         50               0                
2.73                           0.992985365658363 139.582566131925 
! Gamma         0                0                
! Port Impedance         50               0                
2.735                          0.992922283218347 139.420501472509 
! Gamma         0                0                
! Port Impedance         50               0                
2.74                           0.992858095806425 139.258136100347 
! Gamma         0                0                
! Port Impedance         50               0                
2.745                          0.992792794022988 139.095461284704 
! Gamma         0                0                
! Port Impedance         50               0                
2.75                           0.992726367820239 138.932468298497 
! Gamma         0                0                
! Port Impedance         50               0                
2.755                          0.992658806485398 138.769148415445 
! Gamma         0                0                
! Port Impedance         50               0                
2.76                           0.992590098623803 138.605492907277 
! Gamma         0                0                
! Port Impedance         50               0                
2.765                          0.992520232141911 138.441493041017 
! Gamma         0                0                
! Port Impedance         50               0                
2.77                           0.992449194230155 138.277140076325 
! Gamma         0                0                
! Port Impedance         50               0                
2.775                          0.992376971345666 138.112425262901 
! Gamma         0                0                
! Port Impedance         50               0                
2.78                           0.99230354919484 137.947339837944 
! Gamma         0                0                
! Port Impedance         50               0                
2.785                          0.992228912715726 137.781875023667 
! Gamma         0                0                
! Port Impedance         50               0                
2.79                           0.99215304606023 137.616022024858 
! Gamma         0                0                
! Port Impedance         50               0                
2.795                          0.992075932576118 137.449772026494 
! Gamma         0                0                
! Port Impedance         50               0                
2.8                            0.991997554788803 137.283116191399 
! Gamma         0                0                
! Port Impedance         50               0                
2.805                          0.991917894382902 137.11604565794  
! Gamma         0                0                
! Port Impedance         50               0                
2.81                           0.991836932183549 136.948551537772 
! Gamma         0                0                
! Port Impedance         50               0                
2.815                          0.991754648137447 136.780624913612 
! Gamma         0                0                
! Port Impedance         50               0                
2.82                           0.991671021293648 136.612256837058 
! Gamma         0                0                
! Port Impedance         50               0                
2.825                          0.991586029784051 136.443438326435 
! Gamma         0                0                
! Port Impedance         50               0                
2.83                           0.991499650803589 136.274160364676 