! Touchstone file exported from HFSS 2025.1.0
!        File:           C:/Users/Administrator/AppData/Local/Temp/tmp3uhbtkhx.ansys/patch.aedt
!        Generated:      09:06:14 AM Nov 17, 2025
!        Design:         patch
!        Project:        patch
!        Setup:          Setup1
!        Solution:       Sweep1
!
# GHz S MA R 50.000000
! Terminal data exported
! Port[1] = ground_T1
2                              0.944841143602748 126.289992947067 
! Gamma         0                0                
! Port Impedance         50               0                
2.005                          0.941296717135198 125.38667736344  
! Gamma         0                0                
! Port Impedance         50               0                
2.01                           0.937440205918583 124.439509595291 
! Gamma         0                0                
! Port Impedance         50               0                
2.015                          0.933236752522111 123.444874128205 
! Gamma         0                0                
! Port Impedance         50               0                
2.02                           0.928646849626063 122.398765766122 
! Gamma         0                0                
! Port Impedance         50               0                
2.025                          0.923625642415277 121.296738825866 
! Gamma         0                0                
! Port Impedance         50               0                
2.03                           0.918122121794389 120.133848706172 
! Gamma         0                0                
! Port Impedance         50               0                
2.035                          0.912078193237678 118.904584551006 
! Gamma         0                0                
! Port Impedance         50               0                
2.04                           0.905427605495859 117.602791483153 
! Gamma         0                0                
! Port Impedance         50               0                
2.045                          0.898094723786043 116.221580580769 
! Gamma         0                0                
! Port Impedance         50               0                
2.05                           0.889993134208545 114.753224383952 
! Gamma         0                0                
! Port Impedance         50               0                
2.055                          0.881024071060902 113.189035213808 
! Gamma         0                0                
! Port Impedance         50               0                
2.06                           0.871074668096319 111.519222903398 
! Gamma         0                0                
! Port Impedance         50               0                
2.065                          0.860016051015303 109.732727577998 
! Gamma         0                0                
! Port Impedance         50               0                
2.07                           0.847701315072993 107.817021710499 
! Gamma         0                0                
! Port Impedance         50               0                
2.075                          0.833963473557926 105.757873521111 
! Gamma         0                0                
! Port Impedance         50               0                
2.08                           0.818613526828537 103.539060373368 
! Gamma         0                0                
! Port Impedance         50               0                
2.085                          0.801438896585092 101.142015234134 
! Gamma         0                0                
! Port Impedance         50               0                
2.09                           0.78220260751889 98.5453799089812 
! Gamma         0                0                
! Port Impedance         50               0                
2.095                          0.760643791951159 95.7244227762379 
! Gamma         0                0                
! Port Impedance         50               0                
2.1                            0.736480357086291 92.6502509934757 
! Gamma         0                0                
! Port Impedance         50               0                
2.105                          0.70941500238571 89.2886983604897 
! Gamma         0                0                
! Port Impedance         50               0                
2.11                           0.679146215740959 85.5986832379346 
! Gamma         0                0                
! Port Impedance         50               0                
2.115                          0.645386417332575 81.5296747594178 
! Gamma         0                0                
! Port Impedance         50               0                
2.12                           0.607890075511418 77.0176210868472 
! Gamma         0                0                
! Port Impedance         50               0                
2.125                          0.566495473333542 71.9781683188648 
! Gamma         0                0                
! Port Impedance         50               0                
2.13                           0.52118517647822 66.2950177016866 
! Gamma         0                0                
! Port Impedance         50               0                
2.135                          0.472173126094211 59.7994307709185 
! Gamma         0                0                
! Port Impedance         50               0                
2.14                           0.42003328689248 52.2335468594563 
! Gamma         0                0                
! Port Impedance         50               0                
2.145                          0.365902141446137 43.1849215159178 
! Gamma         0                0                
! Port Impedance         50               0                
2.15                           0.311826533465365 31.9768382934023 
! Gamma         0                0                
! Port Impedance         50               0                
2.155                          0.261390193732593 17.5335714171712 
! Gamma         0                0                
! Port Impedance         50               0                
2.16                           0.220674834786674 -1.52110944042998 
! Gamma         0                0                
! Port Impedance         50               0                
2.165                          0.198474129640637 -25.5742425150822 
! Gamma         0                0                
! Port Impedance         50               0                
2.17                           0.201965414485604 -51.442043769178 
! Gamma         0                0                
! Port Impedance         50               0                
2.175                          0.229274204751504 -73.9846964808912 
! Gamma         0                0                
! Port Impedance         50               0                
2.18                           0.271578338209291 -91.3265641509924 
! Gamma         0                0                
! Port Impedance         50               0                
2.185                          0.320783835919367 -104.438193045386 
! Gamma         0                0                
! Port Impedance         50               0                
2.19                           0.37185842449381 -114.665223853907 
! Gamma         0                0                
! Port Impedance         50               0                
2.195                          0.421998879973257 -122.957009870002 
! Gamma         0                0                
! Port Impedance         50               0                
2.2                            0.469695977608375 -129.902378213466 
! Gamma         0                0                
! Port Impedance         50               0                
2.205                          0.51418460219657 -135.864691401543 
! Gamma         0                0                
! Port Impedance         50               0                
2.21                           0.555142059021591 -141.075942825404 
! Gamma         0                0                
! Port Impedance         50               0                
2.215                          0.59251412356634 -145.691271169272 
! Gamma         0                0                
! Port Impedance         50               0                
2.22                           0.62640805187768 -149.819524968606 
! Gamma         0                0                
! Port Impedance         50               0                
2.225                          0.657023828442198 -153.540569177131 
! Gamma         0                0                
! Port Impedance         50               0                
2.23                           0.684609238757339 -156.915331386201 
! Gamma         0                0                
! Port Impedance         50               0                
2.235                          0.709430692220715 -159.991818611539 
! Gamma         0                0                
! Port Impedance         50               0                
2.24                           0.731754750014831 -162.808848224506 
! Gamma         0                0                
! Port Impedance         50               0                
2.245                          0.751836960126529 -165.39844860482 
! Gamma         0                0                
! Port Impedance         50               0                
2.25                           0.769915627065539 -167.787463790635 
! Gamma         0                0                
! Port Impedance         50               0                
2.255                          0.78620884544994 -169.998667374911 
! Gamma         0                0                
! Port Impedance         50               0                
2.26                           0.800913628742334 -172.051564047141 
! Gamma         0                0                
! Port Impedance         50               0                
2.265                          0.81420632763062 -173.962985574035 
! Gamma         0                0                
! Port Impedance         50               0                
2.27                           0.826243793470375 -175.74754681143 
! Gamma         0                0                
! Port Impedance         50               0                
2.275                          0.83716492697314 -177.418003161936 
! Gamma         0                0                
! Port Impedance         50               0                
2.28                           0.84709238094893 -178.985536407816 
! Gamma         0                0                
! Port Impedance         50               0                
2.285                          0.856134273848591 179.540013025227 
! Gamma         0                0                
! Port Impedance         50               0                
2.29                           0.864385829842831 178.149954886901 
! Gamma         0                0                
! Port Impedance         50               0                
2.295                          0.871930899934947 176.836590104917 
! Gamma         0                0                
! Port Impedance         50               0                
2.3                            0.878843343458594 175.593077448063 
! Gamma         0                0                
! Port Impedance         50               0                
2.305                          0.885188264760671 174.413320944972 
! Gamma         0                0                
! Port Impedance         50               0                
2.31                           0.891023109059339 173.291874288132 
! Gamma         0                0                
! Port Impedance         50               0                
2.315                          0.896398626565871 172.223859269597 
! Gamma         0                0                
! Port Impedance         50               0                
2.32                           0.901359716438952 171.204895898273 
! Gamma         0                0                
! Port Impedance         50               0                
2.325                          0.90594616298836 170.231042304456 
! Gamma         0                0                
! Port Impedance         50               0                
2.33                           0.910193276414655 169.298742888536 
! Gamma         0                0                
! Port Impedance         50               0                
2.335                          0.914132449687658 168.404783445928 
! Gamma         0                0                
! Port Impedance         50               0                
2.34                           0.917791642201387 167.546252218955 
! Gamma         0                0                
! Port Impedance         50               0                
2.345                          0.921195799766315 166.720506002125 
! Gamma         0                0                
! Port Impedance         50               0                
2.35                           0.924367219414167 165.925140569876 
! Gamma         0                0                
! Port Impedance         50               0                
2.355                          0.927325866454626 165.157964812556 
! Gamma         0                0                
! Port Impedance         50               0                
2.36                           0.930089650268437 164.416978062427 
! Gamma         0                0                
! Port Impedance         50               0                
2.365                          0.932674664460535 163.700350171098 
! Gamma         0                0                
! Port Impedance         50               0                
2.37                           0.935095396233023 163.006403965914 
! Gamma         0                0                
! Port Impedance         50               0                
2.375                          0.93736490916744 162.333599768167 
! Gamma         0                0                
! Port Impedance         50               0                
2.38                           0.939495003022112 161.68052170233  
! Gamma         0                0                
! Port Impedance         50               0                
2.385                          0.941496353645126 161.045865564522 
! Gamma         0                0                
! Port Impedance         50               0                
2.39                           0.943378635667941 160.428428051328 
! Gamma         0                0                
! Port Impedance         50               0                
2.395                          0.945150630270288 159.827097177909 
! Gamma         0                0                
! Port Impedance         50               0                
2.4                            0.94682031998586 159.240843737983 
! Gamma         0                0                
! Port Impedance         50               0                
2.405                          0.948394972243187 158.668713678321 
! Gamma         0                0                
! Port Impedance         50               0                
2.41                           0.949881213100583 158.109821277508 
! Gamma         0                0                
! Port Impedance         50               0                
2.415                          0.951285092432425 157.563343033355 
! Gamma         0                0                
! Port Impedance         50               0                
2.42                           0.952612141651554 157.028512175858 
! Gamma         0                0                
! Port Impedance         50               0                
2.425                          0.953867424904803 156.504613733308 
! Gamma         0                0                
! Port Impedance         50               0                
2.43                           0.955055584552111 155.990980088435 
! Gamma         0                0                
! Port Impedance         50               0                
2.435                          0.956180881631142 155.486986969355 
! Gamma         0                0                
! Port Impedance         50               0                
2.44                           0.9572472319162  154.992049826995 
! Gamma         0                0                
! Port Impedance         50               0                
2.445                          0.958258238100189 154.505620556588 
! Gamma         0                0                
! Port Impedance         50               0                
2.45                           0.959217218559537 154.027184525932 
! Gamma         0                0                
! Port Impedance         50               0                
2.455                          0.960127233102743 153.556257877626 
! Gamma         0                0                
! Port Impedance         50               0                
2.46                           0.960991106052048 153.092385076303 
! Gamma         0                0                
! Port Impedance         50               0                
2.465                          0.96181144696363 152.635136675311 
! Gamma         0                0                
! Port Impedance         50               0                
2.47                           0.962590669253517 152.184107280184 
! Gamma         0                0                
! Port Impedance         50               0                
2.475                          0.963331006963383 151.738913688858 
! Gamma         0                0                
! Port Impedance         50               0                
2.48                           0.964034529871725 151.299193190808 
! Gamma         0                0                
! Port Impedance         50               0                
2.485                          0.964703157131004 150.864602009257 
! Gamma         0                0                
! Port Impedance         50               0                
2.49                           0.965338669589713 150.434813872353 
! Gamma         0                0                
! Port Impedance         50               0                
2.495                          0.965942720939451 150.009518700707 
! Gamma         0                0                
! Port Impedance         50               0                
2.5                            0.966516847810624 149.588421400034 
! Gamma         0                0                
! Port Impedance         50               0                
2.505                          0.967062478926034 149.171240748823 
! Gamma         0                0                
! Port Impedance         50               0                
2.51                           0.967580943409013 148.757708371973 
! Gamma         0                0                
! Port Impedance         50               0                
2.515                          0.968073478331711 148.347567792289 
! Gamma         0                0                
! Port Impedance         50               0                
2.52                           0.968541235579491 147.940573552498 
! Gamma         0                0                
! Port Impedance         50               0                
2.525                          0.968985288098795 147.536490401184 
! Gamma         0                0                
! Port Impedance         50               0                
2.53                           0.969406635588359 147.135092536666 
! Gamma         0                0                
! Port Impedance         50               0                
2.535                          0.969806209686963 146.736162903388 
! Gamma         0                0                
! Port Impedance         50               0                
2.54                           0.970184878704994 146.339492535885 
! Gamma         0                0                
! Port Impedance         50               0                
2.545                          0.970543451941827 145.94487994582  
! Gamma         0                0                
! Port Impedance         50               0                
2.55                           0.9708826836263  145.55213054794  
! Gamma         0                0                
! Port Impedance         50               0                
2.555                          0.971203276513281 145.161056121145 
! Gamma         0                0                
! Port Impedance         50               0                
2.56                           0.971505885165439 144.771474301106 
! Gamma         0                0                
! Port Impedance         50               0                
2.565                          0.971791118945722 144.383208101129 
! Gamma         0                0                
! Port Impedance         50               0                
2.57                           0.97205954474268 143.996085458109 
! Gamma         0                0                
! Port Impedance         50               0                
2.575                          0.972311689447463 143.609938800572 
! Gamma         0                0                
! Port Impedance         50               0                
2.58                           0.972548042198152 143.224604635889 
! Gamma         0                0                
! Port Impedance         50               0                
2.585                          0.972769056403679 142.839923153772 
! Gamma         0                0                
! Port Impedance         50               0                
2.59                           0.972975151556065 142.455737843142 
! Gamma         0                0                
! Port Impedance         50               0                
2.595                          0.973166714835659 142.071895119367 
! Gamma         0                0                
! Port Impedance         50               0                
2.6                            0.973344102509364 141.688243958699 
! Gamma         0                0                
! Port Impedance         50               0                
2.605                          0.973507641116013 141.304635536458 
! Gamma         0                0                
! Port Impedance         50               0                
2.61                           0.973657628425777 140.920922865123 
! Gamma         0                0                
! Port Impedance         50               0                
2.615                          0.973794334150774 140.536960427941 
! Gamma         0                0                
! Port Impedance         50               0                
2.62                           0.97391800037114 140.1526038029   
! Gamma         0                0                
! Port Impedance         50               0                
2.625                          0.974028841622924 139.767709270918 
! Gamma         0                0                
! Port Impedance         50               0                
2.63                           0.974127044569223 139.382133400721 
! Gamma         0                0                
! Port Impedance         50               0                
2.635                          0.97421276714035 138.995732601112 
! Gamma         0                0                
! Port Impedance         50               0                
2.64                           0.974286136977503 138.608362628901 
! Gamma         0                0                
! Port Impedance         50               0                
2.645                          0.974347248939166 138.219878037637 
! Gamma         0                0                
! Port Impedance         50               0                
2.65                           0.974396161317928 137.830131548115 
! Gamma         0                0                
! Port Impedance         50               0                
2.655                          0.974432890247674 137.438973316176 
! Gamma         0                0                
! Port Impedance         50               0                
2.66                           0.974457401525484 137.046250066399 
! Gamma         0                0                
! Port Impedance         50               0                
2.665                          0.974469598677687 136.651804051567 
! Gamma         0                0                
! Port Impedance         50               0                
2.67                           0.974469305480814 136.255471787629 
! Gamma         0                0                
! Port Impedance         50               0                
2.675                          0.974456240165268 135.857082503399 
! Gamma         0                0                
! Port Impedance         50               0                
2.68                           0.974429976946183 135.45645623723  
! Gamma         0                0                
! Port Impedance         50               0                
2.685                          0.974389887943031 135.053401519191 
! Gamma         0                0                
! Port Impedance         50               0                
2.69                           0.974335054290722 134.647712620848 
! Gamma         0                0                
! Port Impedance         50               0                
2.695                          0.974264128179764 134.239166492577 
! Gamma         0                0                
! Port Impedance         50               0                
2.7                            0.974175115871637 133.827519874154 
! Gamma         0                0                
! Port Impedance         50               0                
2.705                          0.974065032782666 133.412507971169 
! Gamma         0                0                
! Port Impedance         50               0                
2.71                           0.973929352850365 132.993848265296 
! Gamma         0                0                
! Port Impedance         50               0                
2.715                          0.973761137768599 132.571258134735 
! Gamma         0                0                
! Port Impedance         50               0                
2.72                           0.9735497145443  132.144506612705 
! Gamma         0                0                
! Port Impedance         50               0                
2.725                          0.973278895979398 131.713545529221 
! Gamma         0                0                
! Port Impedance         50               0                
2.73                           0.972925442927457 131.278810001044 
! Gamma         0                0                
! Port Impedance         50               0                
2.735                          0.972460935486653 130.841816420276 
! Gamma         0                0                
! Port Impedance         50               0                
2.74                           0.971866093210704 130.406018244858 
! Gamma         0                0                
! Port Impedance         50               0                
2.745                          0.971170526393059 129.976910393899 
! Gamma         0                0                
! Port Impedance         50               0                
2.75                           0.970499465774925 129.558716603731 
! Gamma         0                0                
! Port Impedance         50               0                
2.755                          0.970028867061189 129.14789953281  
! Gamma         0                0                
! Port Impedance         50               0                
2.76                           0.969825748857668 128.733342626024 
! Gamma         0                0                
! Port Impedance         50               0                
2.765                          0.969799848101272 128.306110374664 
! Gamma         0                0                
! Port Impedance         50               0                
2.77                           0.969824629765539 127.864402278296 
! Gamma         0                0                
! Port Impedance         50               0                
2.775                          0.969823254839819 127.41035461946  
! Gamma         0                0                
! Port Impedance         50               0                
2.78                           0.969767525139057 126.946524819972 
! Gamma         0                0                
! Port Impedance         50               0                
2.785                          0.969653752462406 126.474700766807 
! Gamma         0                0                
! Port Impedance         50               0                
2.79                           0.969486809216272 125.995897364693 
! Gamma         0                0                
! Port Impedance         50               0                
2.795                          0.969273193609334 125.510605595342 
! Gamma         0                0                
! Port Impedance         50               0                
2.8                            0.969018680806675 125.019001062269 
! Gamma         0                0                
! Port Impedance         50               0                
2.805                          0.968727787522399 124.521076000002 
! Gamma         0                0                
! Port Impedance         50               0                
2.81                           0.968403839671907 124.016715654331 
! Gamma         0                0                
! Port Impedance         50               0                
2.815                          0.968049189720241 123.505741131024 
! Gamma         0                0                
! Port Impedance         50               0                
2.82                           0.967665433745145 122.987933224545 
! Gamma         0                0                
! Port Impedance         50               0                
2.825                          0.967253588663395 122.463045637987 
! Gamma         0                0                
! Port Impedance         50               0                