! Touchstone file exported from HFSS 2025.1.0
!        File:           C:/Users/Administrator/AppData/Local/Temp/tmpmlntgfnl.ansys/patch.aedt
!        Generated:      05:07:42 PM Nov 20, 2025
!        Design:         patch
!        Project:        patch
!        Setup:          Setup1
!        Solution:       Sweep1
!
# GHz S MA R 50.000000
! Terminal data exported
! Port[1] = ground_T1
2                              0.986620270023603 140.895842836943 
! Gamma         0                0                
! Port Impedance         50               0                
2.005                          0.986210798973765 140.613015564408 
! Gamma         0                0                
! Port Impedance         50               0                
2.01                           0.985784911571942 140.326208728812 
! Gamma         0                0                
! Port Impedance         50               0                
2.015                          0.985341801121379 140.035283549981 
! Gamma         0                0                
! Port Impedance         50               0                
2.02                           0.984880610406156 139.740094658963 
! Gamma         0                0                
! Port Impedance         50               0                
2.025                          0.984400427936474 139.440489701076 
! Gamma         0                0                
! Port Impedance         50               0                
2.03                           0.983900283869639 139.136308910332 
! Gamma         0                0                
! Port Impedance         50               0                
2.035                          0.983379145574931 138.827384652847 
! Gamma         0                0                
! Port Impedance         50               0                
2.04                           0.982835912807015 138.513540936611 
! Gamma         0                0                
! Port Impedance         50               0                
2.045                          0.982269412448663 138.194592884748 
! Gamma         0                0                
! Port Impedance         50               0                
2.05                           0.981678392779146 137.87034616912  
! Gamma         0                0                
! Port Impedance         50               0                
2.055                          0.981061517219739 137.540596400819 
! Gamma         0                0                
! Port Impedance         50               0                
2.06                           0.980417357502206 137.205128473755 
! Gamma         0                0                
! Port Impedance         50               0                
2.065                          0.979744386199945 136.863715857161 
! Gamma         0                0                
! Port Impedance         50               0                
2.07                           0.979040968554381 136.516119832439 
! Gamma         0                0                
! Port Impedance         50               0                
2.075                          0.978305353521336 136.162088669287 
! Gamma         0                0                
! Port Impedance         50               0                
2.08                           0.977535663953084 135.801356735533 
! Gamma         0                0                
! Port Impedance         50               0                
2.085                          0.976729885821777 135.433643534554 
! Gamma         0                0                
! Port Impedance         50               0                
2.09                           0.975885856378426 135.058652663483 
! Gamma         0                0                
! Port Impedance         50               0                
2.095                          0.97500125112872 134.676070684722 
! Gamma         0                0                
! Port Impedance         50               0                
2.1                            0.974073569492307 134.285565902483 
! Gamma         0                0                
! Port Impedance         50               0                
2.105                          0.973100118995525 133.886787035189 
! Gamma         0                0                
! Port Impedance         50               0                
2.11                           0.972077997828696 133.479361773594 
! Gamma         0                0                
! Port Impedance         50               0                
2.115                          0.971004075577681 133.062895213367 
! Gamma         0                0                
! Port Impedance         50               0                
2.12                           0.96987497191501 132.636968149668 
! Gamma         0                0                
! Port Impedance         50               0                
2.125                          0.968687033008167 132.201135219868 
! Gamma         0                0                
! Port Impedance         50               0                
2.13                           0.967436305371049 131.754922879035 
! Gamma         0                0                
! Port Impedance         50               0                
2.135                          0.966118506848666 131.297827191079 
! Gamma         0                0                
! Port Impedance         50               0                
2.14                           0.964728994384156 130.82931141655  
! Gamma         0                0                
! Port Impedance         50               0                
2.145                          0.963262728170456 130.348803375915 
! Gamma         0                0                
! Port Impedance         50               0                
2.15                           0.961714231735701 129.855692564764 
! Gamma         0                0                
! Port Impedance         50               0                
2.155                          0.960077547450658 129.349326994683 
! Gamma         0                0                
! Port Impedance         50               0                
2.16                           0.958346186877192 128.829009730558 
! Gamma         0                0                
! Port Impedance         50               0                
2.165                          0.956513075297811 128.2939950917   
! Gamma         0                0                
! Port Impedance         50               0                
2.17                           0.954570489676353 127.743484480454 
! Gamma         0                0                
! Port Impedance         50               0                
2.175                          0.95250998919754 127.176621797778 
! Gamma         0                0                
! Port Impedance         50               0                
2.18                           0.950322337416794 126.592488400638 
! Gamma         0                0                
! Port Impedance         50               0                
2.185                          0.947997414919835 125.99009755089  
! Gamma         0                0                
! Port Impedance         50               0                
2.19                           0.945524121242409 125.368388299639 
! Gamma         0                0                
! Port Impedance         50               0                
2.195                          0.942890264632379 124.726218744686 
! Gamma         0                0                
! Port Impedance         50               0                
2.2                            0.940082438047774 124.062358591783 
! Gamma         0                0                
! Port Impedance         50               0                
2.205                          0.937085879574022 123.375480942718 
! Gamma         0                0                
! Port Impedance         50               0                
2.21                           0.933884315210689 122.664153225    
! Gamma         0                0                
! Port Impedance         50               0                
2.215                          0.930459781722995 121.926827168854 
! Gamma         0                0                
! Port Impedance         50               0                
2.22                           0.926792426977583 121.161827727594 
! Gamma         0                0                
! Port Impedance         50               0                
2.225                          0.922860284889759 120.367340827169 
! Gamma         0                0                
! Port Impedance         50               0                
2.23                           0.918639021807468 119.541399819863 
! Gamma         0                0                
! Port Impedance         50               0                
2.235                          0.914101650858108 118.681870505994 
! Gamma         0                0                
! Port Impedance         50               0                
2.24                           0.909218210506567 117.786434576165 
! Gamma         0                0                
! Port Impedance         50               0                
2.245                          0.903955403345561 116.852571315418 
! Gamma         0                0                
! Port Impedance         50               0                
2.25                           0.898276191005112 115.877537399906 
! Gamma         0                0                
! Port Impedance         50               0                
2.255                          0.892139341088434 114.858344606698 
! Gamma         0                0                
! Port Impedance         50               0                
2.26                           0.885498922304836 113.791735248344 
! Gamma         0                0                
! Port Impedance         50               0                
2.265                          0.878303744599971 112.67415513586  
! Gamma         0                0                
! Port Impedance         50               0                
2.27                           0.870496742251548 111.501723866184 
! Gamma         0                0                
! Port Impedance         50               0                
2.275                          0.862014299838959 110.270202221294 
! Gamma         0                0                
! Port Impedance         50               0                
2.28                           0.852785524024517 108.974956451961 
! Gamma         0                0                
! Port Impedance         50               0                
2.285                          0.842731468622302 107.61091919185  
! Gamma         0                0                
! Port Impedance         50               0                
2.29                           0.831764327024802 106.172546692434 
! Gamma         0                0                
! Port Impedance         50               0                
2.295                          0.819786615403815 104.653771959401 
! Gamma         0                0                
! Port Impedance         50               0                
2.3                            0.806690383059115 103.047953159866 
! Gamma         0                0                
! Port Impedance         50               0                
2.305                          0.79235650387213 101.347816275488 
! Gamma         0                0                
! Port Impedance         50               0                
2.31                           0.776654126160638 99.5453902604829 
! Gamma         0                0                
! Port Impedance         50               0                
2.315                          0.759440388453317 97.6319316887287 
! Gamma         0                0                
! Port Impedance         50               0                
2.32                           0.740560546719994 95.5978336389505 
! Gamma         0                0                
! Port Impedance         50               0                
2.325                          0.719848704720068 93.4325096867175 
! Gamma         0                0                
! Port Impedance         50               0                
2.33                           0.697129392515841 91.1242371722919 
! Gamma         0                0                
! Port Impedance         50               0                
2.335                          0.672220296046474 88.6599323518243 
! Gamma         0                0                
! Port Impedance         50               0                
2.34                           0.644936497395759 86.0248099937133 
! Gamma         0                0                
! Port Impedance         50               0                
2.345                          0.615096632150384 83.2018448503442 
! Gamma         0                0                
! Port Impedance         50               0                
2.35                           0.582531395766289 80.170889753606  
! Gamma         0                0                
! Port Impedance         50               0                
2.355                          0.54709482600935 76.9071902707703 
! Gamma         0                0                
! Port Impedance         50               0                
2.36                           0.508678759493238 73.3788178840544 
! Gamma         0                0                
! Port Impedance         50               0                
2.365                          0.467230861615528 69.5421101455259 
! Gamma         0                0                
! Port Impedance         50               0                
2.37                           0.422776845062223 65.3332927835803 
! Gamma         0                0                
! Port Impedance         50               0                
2.375                          0.375448450499002 60.6523949925941 
! Gamma         0                0                
! Port Impedance         50               0                
2.38                           0.325521968606193 55.3305065031827 
! Gamma         0                0                
! Port Impedance         50               0                
2.385                          0.273482177846188 49.057755784737  
! Gamma         0                0                
! Port Impedance         50               0                
2.39                           0.220159927617594 41.2082758985542 
! Gamma         0                0                
! Port Impedance         50               0                
2.395                          0.167115955199607 30.3615710642154 
! Gamma         0                0                
! Port Impedance         50               0                
2.4                            0.117976890243462 12.8823655803029 
! Gamma         0                0                
! Port Impedance         50               0                
2.405                          0.0833691827981859 -19.6598963766278 
! Gamma         0                0                
! Port Impedance         50               0                
2.41                           0.0850581896980876 -65.3457023787447 
! Gamma         0                0                
! Port Impedance         50               0                
2.415                          0.121111238937169 -96.1693079733185 
! Gamma         0                0                
! Port Impedance         50               0                
2.42                           0.169835618139227 -112.765600802586 
! Gamma         0                0                
! Port Impedance         50               0                
2.425                          0.221588857462308 -123.179988706309 
! Gamma         0                0                
! Port Impedance         50               0                
2.43                           0.273109618446641 -130.756540848149 
! Gamma         0                0                
! Port Impedance         50               0                
2.435                          0.323019962325035 -136.815369022108 
! Gamma         0                0                
! Port Impedance         50               0                
2.44                           0.370621305936052 -141.946833359582 
! Gamma         0                0                
! Port Impedance         50               0                
2.445                          0.41553795695272 -146.447877300119 
! Gamma         0                0                
! Port Impedance         50               0                
2.45                           0.457583996931597 -150.48313600345 
! Gamma         0                0                
! Port Impedance         50               0                
2.455                          0.496699525921659 -154.151802095224 
! Gamma         0                0                
! Port Impedance         50               0                
2.46                           0.532912477059647 -157.518240427112 
! Gamma         0                0                
! Port Impedance         50               0                
2.465                          0.566311979583561 -160.627129536907 
! Gamma         0                0                
! Port Impedance         50               0                
2.47                           0.597028330275515 -163.511413602236 
! Gamma         0                0                
! Port Impedance         50               0                
2.475                          0.625217598970144 -166.196681309606 
! Gamma         0                0                
! Port Impedance         50               0                
2.48                           0.651049878323888 -168.703672932275 
! Gamma         0                0                
! Port Impedance         50               0                
2.485                          0.674700512741435 -171.049765839457 
! Gamma         0                0                
! Port Impedance         50               0                
2.49                           0.696343758228291 -173.249884276122 
! Gamma         0                0                
! Port Impedance         50               0                
2.495                          0.716148388628776 -175.317076176866 
! Gamma         0                0                
! Port Impedance         50               0                
2.5                            0.734274821621838 -177.26289310554 
! Gamma         0                0                
! Port Impedance         50               0                
2.505                          0.750873399375201 -179.097651339738 
! Gamma         0                0                
! Port Impedance         50               0                
2.51                           0.766083521561264 179.169380388036 
! Gamma         0                0                
! Port Impedance         50               0                
2.515                          0.780033388160954 177.52983956739  
! Gamma         0                0                
! Port Impedance         50               0                
2.52                           0.792840162861275 175.976158877646 
! Gamma         0                0                
! Port Impedance         50               0                
2.525                          0.804610413268513 174.501475664985 
! Gamma         0                0                
! Port Impedance         50               0                
2.53                           0.815440721325073 173.099555911145 
! Gamma         0                0                
! Port Impedance         50               0                
2.535                          0.825418386794031 171.764728921883 
! Gamma         0                0                
! Port Impedance         50               0                
2.54                           0.834622169452804 170.491830312034 
! Gamma         0                0                
! Port Impedance         50               0                
2.545                          0.843123032847931 169.276151678711 
! Gamma         0                0                
! Port Impedance         50               0                
2.55                           0.850984865205947 168.113395850445 
! Gamma         0                0                
! Port Impedance         50               0                
2.555                          0.858265162348817 166.999636906046 
! Gamma         0                0                
! Port Impedance         50               0                
2.56                           0.865015664049028 165.931284349202 
! Gamma         0                0                
! Port Impedance         50               0                
2.565                          0.871282939845483 164.905050949083 
! Gamma         0                0                
! Port Impedance         50               0                
2.57                           0.877108923451143 163.917923840728 
! Gamma         0                0                
! Port Impedance         50               0                
2.575                          0.882531396920394 162.96713853794  
! Gamma         0                0                
! Port Impedance         50               0                
2.58                           0.887584427013666 162.050155555481 
! Gamma         0                0                
! Port Impedance         50               0                
2.585                          0.892298756926399 161.164639372054 
! Gamma         0                0                
! Port Impedance         50               0                
2.59                           0.896702156906078 160.308439494351 
! Gamma         0                0                
! Port Impedance         50               0                
2.595                          0.900819737386358 159.479573407089 
! Gamma         0                0                
! Port Impedance         50               0                
2.6                            0.904674228208273 158.67621121571  
! Gamma         0                0                
! Port Impedance         50               0                
2.605                          0.908286227337049 157.896661807829 
! Gamma         0                0                
! Port Impedance         50               0                
2.61                           0.911674422261981 157.139360377025 
! Gamma         0                0                
! Port Impedance         50               0                
2.615                          0.914855787016062 156.402857168458 
! Gamma         0                0                
! Port Impedance         50               0                
2.62                           0.917845757491179 155.685807320136 
! Gamma         0                0                
! Port Impedance         50               0                
2.625                          0.92065838746687 154.986961686665 
! Gamma         0                0                
! Port Impedance         50               0                
2.63                           0.923306487523797 154.305158544117 
! Gamma         0                0                
! Port Impedance         50               0                
2.635                          0.925801748782077 153.639316085204 
! Gamma         0                0                
! Port Impedance         50               0                
2.64                           0.928154853191785 152.988425623549 
! Gamma         0                0                
! Port Impedance         50               0                
2.645                          0.930375571909097 152.351545434393 
! Gamma         0                0                
! Port Impedance         50               0                
2.65                           0.932472853116603 151.727795166793 
! Gamma         0                0                
! Port Impedance         50               0                
2.655                          0.934454900489507 151.116350769254 
! Gamma         0                0                
! Port Impedance         50               0                
2.66                           0.936329243369515 150.516439876887 
! Gamma         0                0                
! Port Impedance         50               0                
2.665                          0.938102799583928 149.927337613706 
! Gamma         0                0                
! Port Impedance         50               0                
2.67                           0.939781931737405 149.348362768575 
! Gamma         0                0                
! Port Impedance         50               0                
2.675                          0.941372497706578 148.778874307708 
! Gamma         0                0                
! Port Impedance         50               0                
2.68                           0.942879895981878 148.218268190496 
! Gamma         0                0                
! Port Impedance         50               0                
2.685                          0.944309106425366 147.665974458967 
! Gamma         0                0                
! Port Impedance         50               0                
2.69                           0.945664726946797 147.121454574216 
! Gamma         0                0                
! Port Impedance         50               0                
2.695                          0.946951006541593 146.584198975966 
! Gamma         0                0                
! Port Impedance         50               0                
2.7                            0.948171875082917 146.053724843816 
! Gamma         0                0                
! Port Impedance         50               0                
2.705                          0.949330970214763 145.529574040979 
! Gamma         0                0                
! Port Impedance         50               0                
2.71                           0.950431661653102 145.011311223222 
! Gamma         0                0                
! Port Impedance         50               0                
2.715                          0.951477073167127 144.498522097485 
! Gamma         0                0                
! Port Impedance         50               0                
2.72                           0.952470102481757 143.990811816184 
! Gamma         0                0                
! Port Impedance         50               0                
2.725                          0.953413439315396 143.487803494624 
! Gamma         0                0                
! Port Impedance         50               0                
2.73                           0.954309581743036 142.989136840138 
! Gamma         0                0                
! Port Impedance         50               0                
2.735                          0.955160851053634 142.494466882711 
! Gamma         0                0                
! Port Impedance         50               0                
2.74                           0.955969405252129 142.003462797804 
! Gamma         0                0                
! Port Impedance         50               0                
2.745                          0.956737251339945 141.515806813006 
! Gamma         0                0                
! Port Impedance         50               0                
2.75                           0.957466256493354 141.031193190891 
! Gamma         0                0                
! Port Impedance         50               0                
2.755                          0.958158158246164 140.549327281206 
! Gamma         0                0                
! Port Impedance         50               0                
2.76                           0.958814573771807 140.069924636115 
! Gamma         0                0                
! Port Impedance         50               0                
2.765                          0.959437008349834 139.592710182798 
! Gamma         0                0                
! Port Impedance         50               0                
2.77                           0.960026863092828 139.117417448234 
! Gamma         0                0                
! Port Impedance         50               0                
2.775                          0.960585442001793 138.643787831412 
! Gamma         0                0                
! Port Impedance         50               0                
2.78                           0.961113958411021 138.171569918656 
! Gamma         0                0                
! Port Impedance         50               0                
2.785                          0.961613540877107 137.700518838103 
! Gamma         0                0                
! Port Impedance         50               0                
2.79                           0.96208523856117 137.230395649696 
! Gamma         0                0                
! Port Impedance         50               0                
2.795                          0.962530026148343 136.760966767355 
! Gamma         0                0                
! Port Impedance         50               0                
2.8                            0.962948808344094 136.292003410262 
! Gamma         0                0                
! Port Impedance         50               0                
2.805                          0.963342423982947 135.823281080404 
! Gamma         0                0                
! Port Impedance         50               0                
2.81                           0.963711649781562 135.354579063768 
! Gamma         0                0                
! Port Impedance         50               0                
2.815                          0.964057203764944 134.885679952734 
! Gamma         0                0                
! Port Impedance         50               0                
2.82                           0.964379748391615 134.416369187416 
! Gamma         0                0                
! Port Impedance         50               0                
2.825                          0.964679893401023 133.946434613819 
! Gamma         0                0                
! Port Impedance         50               0                