! Touchstone file exported from HFSS 2025.1.0
!        File:           C:/Users/Administrator/AppData/Local/Temp/tmptuw3a_50.ansys/patch.aedt
!        Generated:      10:58:44 AM Nov 20, 2025
!        Design:         patch
!        Project:        patch
!        Setup:          Setup1
!        Solution:       Sweep1
!
# GHz S MA R 50.000000
! Terminal data exported
! Port[1] = ground_T1
2                              0.998341537780763 -179.298812907218 
! Gamma         0                0                
! Port Impedance         50               0                
2.005                          0.998333121554207 -179.432423709573 
! Gamma         0                0                
! Port Impedance         50               0                
2.01                           0.998324690308805 -179.565836207595 
! Gamma         0                0                
! Port Impedance         50               0                
2.015                          0.998316241125675 -179.699052917   
! Gamma         0                0                
! Port Impedance         50               0                
2.02                           0.998307771112405 -179.832076339883 
! Gamma         0                0                
! Port Impedance         50               0                
2.025                          0.998299277402815 -179.964908964995 
! Gamma         0                0                
! Port Impedance         50               0                
2.03                           0.998290757156716 179.902446731979 
! Gamma         0                0                
! Port Impedance         50               0                
2.035                          0.998282207559673 179.769988288148 
! Gamma         0                0                
! Port Impedance         50               0                
2.04                           0.998273625822764 179.637713253139 
! Gamma         0                0                
! Port Impedance         50               0                
2.045                          0.99826500918235 179.505619188823 
! Gamma         0                0                
! Port Impedance         50               0                
2.05                           0.998256354899833 179.373703669048 
! Gamma         0                0                
! Port Impedance         50               0                
2.055                          0.998247660261422 179.241964279365 
! Gamma         0                0                
! Port Impedance         50               0                
2.06                           0.9982389225779  179.110398616763 
! Gamma         0                0                
! Port Impedance         50               0                
2.065                          0.998230139184384 178.979004289397 
! Gamma         0                0                
! Port Impedance         50               0                
2.07                           0.998221307440091 178.847778916324 
! Gamma         0                0                
! Port Impedance         50               0                
2.075                          0.998212424728104 178.716720127235 
! Gamma         0                0                
! Port Impedance         50               0                
2.08                           0.998203488455133 178.585825562192 
! Gamma         0                0                
! Port Impedance         50               0                
2.085                          0.998194496051274 178.455092871363 
! Gamma         0                0                
! Port Impedance         50               0                
2.09                           0.998185444969779 178.324519714756 
! Gamma         0                0                
! Port Impedance         50               0                
2.095                          0.998176332686809 178.194103761961 
! Gamma         0                0                
! Port Impedance         50               0                
2.1                            0.998167156701195 178.063842691881 
! Gamma         0                0                
! Port Impedance         50               0                
2.105                          0.998157914534198 177.933734192478 
! Gamma         0                0                
! Port Impedance         50               0                
2.11                           0.998148603729259 177.803775960506 
! Gamma         0                0                
! Port Impedance         50               0                
2.115                          0.998139221851759 177.673965701251 
! Gamma         0                0                
! Port Impedance         50               0                
2.12                           0.998129766488765 177.544301128273 
! Gamma         0                0                
! Port Impedance         50               0                
2.125                          0.998120235248783 177.414779963146 
! Gamma         0                0                
! Port Impedance         50               0                
2.13                           0.9981106257615  177.285399935192 
! Gamma         0                0                
! Port Impedance         50               0                
2.135                          0.998100935677533 177.156158781229 
! Gamma         0                0                
! Port Impedance         50               0                
2.14                           0.998091162668163 177.027054245309 
! Gamma         0                0                
! Port Impedance         50               0                
2.145                          0.998081304425076 176.898084078455 
! Gamma         0                0                
! Port Impedance         50               0                
2.15                           0.998071358660095 176.769246038405 
! Gamma         0                0                
! Port Impedance         50               0                
2.155                          0.998061323104909 176.640537889353 
! Gamma         0                0                
! Port Impedance         50               0                
2.16                           0.998051195510797 176.511957401687 
! Gamma         0                0                
! Port Impedance         50               0                
2.165                          0.998040973648353 176.383502351728 
! Gamma         0                0                
! Port Impedance         50               0                
2.17                           0.998030655307195 176.255170521473 
! Gamma         0                0                
! Port Impedance         50               0                
2.175                          0.998020238295684 176.126959698335 
! Gamma         0                0                
! Port Impedance         50               0                
2.18                           0.998009720440622 175.998867674876 
! Gamma         0                0                
! Port Impedance         50               0                
2.185                          0.99799909958696 175.870892248554 
! Gamma         0                0                
! Port Impedance         50               0                
2.19                           0.997988373597483 175.743031221453 
! Gamma         0                0                
! Port Impedance         50               0                
2.195                          0.997977540352509 175.615282400026 
! Gamma         0                0                
! Port Impedance         50               0                
2.2                            0.997966597749561 175.487643594832 
! Gamma         0                0                
! Port Impedance         50               0                
2.205                          0.997955543703048 175.360112620266 
! Gamma         0                0                
! Port Impedance         50               0                
2.21                           0.997944376143932 175.232687294302 
! Gamma         0                0                
! Port Impedance         50               0                
2.215                          0.997933093019383 175.105365438221 
! Gamma         0                0                
! Port Impedance         50               0                
2.22                           0.997921692292439 174.978144876351 
! Gamma         0                0                
! Port Impedance         50               0                
2.225                          0.997910171941645 174.851023435792 
! Gamma         0                0                
! Port Impedance         50               0                
2.23                           0.99789852996069 174.723998946153 
! Gamma         0                0                
! Port Impedance         50               0                
2.235                          0.997886764358035 174.597069239279 
! Gamma         0                0                
! Port Impedance         50               0                
2.24                           0.997874873156529 174.470232148984 
! Gamma         0                0                
! Port Impedance         50               0                
2.245                          0.997862854393014 174.343485510774 
! Gamma         0                0                
! Port Impedance         50               0                
2.25                           0.997850706117929 174.216827161574 
! Gamma         0                0                
! Port Impedance         50               0                
2.255                          0.99783842639489 174.090254939455 
! Gamma         0                0                
! Port Impedance         50               0                
2.26                           0.997826013300268 173.963766683359 
! Gamma         0                0                
! Port Impedance         50               0                
2.265                          0.997813464922757 173.837360232813 
! Gamma         0                0                
! Port Impedance         50               0                
2.27                           0.997800779362919 173.711033427658 
! Gamma         0                0                
! Port Impedance         50               0                
2.275                          0.997787954732729 173.584784107761 
! Gamma         0                0                
! Port Impedance         50               0                
2.28                           0.997774989155102 173.458610112733 
! Gamma         0                0                
! Port Impedance         50               0                
2.285                          0.997761880763404 173.332509281645 
! Gamma         0                0                
! Port Impedance         50               0                
2.29                           0.99774862770095 173.206479452737 
! Gamma         0                0                
! Port Impedance         50               0                
2.295                          0.997735228120496 173.080518463133 
! Gamma         0                0                
! Port Impedance         50               0                
2.3                            0.997721680183699 172.954624148544 
! Gamma         0                0                
! Port Impedance         50               0                
2.305                          0.997707982060579 172.828794342976 
! Gamma         0                0                
! Port Impedance         50               0                
2.31                           0.997694131928955 172.703026878434 
! Gamma         0                0                
! Port Impedance         50               0                
2.315                          0.997680127973862 172.57731958462  
! Gamma         0                0                
! Port Impedance         50               0                
2.32                           0.997665968386963 172.451670288637 
! Gamma         0                0                
! Port Impedance         50               0                
2.325                          0.997651651365922 172.326076814677 
! Gamma         0                0                
! Port Impedance         50               0                
2.33                           0.997637175113786 172.200536983719 
! Gamma         0                0                
! Port Impedance         50               0                
2.335                          0.99762253783832 172.075048613218 
! Gamma         0                0                
! Port Impedance         50               0                
2.34                           0.997607737751337 171.949609516791 
! Gamma         0                0                
! Port Impedance         50               0                
2.345                          0.99759277306801 171.824217503902 
! Gamma         0                0                
! Port Impedance         50               0                
2.35                           0.997577642006148 171.698870379542 
! Gamma         0                0                
! Port Impedance         50               0                
2.355                          0.997562342785462 171.573565943907 
! Gamma         0                0                
! Port Impedance         50               0                
2.36                           0.997546873626805 171.44830199207  
! Gamma         0                0                
! Port Impedance         50               0                
2.365                          0.997531232751383 171.323076313657 
! Gamma         0                0                
! Port Impedance         50               0                
2.37                           0.99751541837995 171.197886692507 
! Gamma         0                0                
! Port Impedance         50               0                
2.375                          0.997499428731962 171.07273090634  
! Gamma         0                0                
! Port Impedance         50               0                
2.38                           0.997483262024726 170.947606726416 
! Gamma         0                0                
! Port Impedance         50               0                
2.385                          0.9974669164725  170.822511917189 
! Gamma         0                0                
! Port Impedance         50               0                
2.39                           0.997450390285577 170.697444235958 
! Gamma         0                0                
! Port Impedance         50               0                
2.395                          0.997433681669337 170.572401432517 
! Gamma         0                0                
! Port Impedance         50               0                
2.4                            0.997416788823264 170.447381248795 
! Gamma         0                0                
! Port Impedance         50               0                
2.405                          0.997399709939936 170.322381418497 
! Gamma         0                0                
! Port Impedance         50               0                
2.41                           0.997382443203981 170.197399666735 
! Gamma         0                0                
! Port Impedance         50               0                
2.415                          0.997364986790994 170.072433709658 
! Gamma         0                0                
! Port Impedance         50               0                
2.42                           0.997347338866431 169.947481254079 
! Gamma         0                0                
! Port Impedance         50               0                
2.425                          0.99732949758445 169.822539997091 
! Gamma         0                0                
! Port Impedance         50               0                
2.43                           0.997311461086724 169.697607625681 
! Gamma         0                0                
! Port Impedance         50               0                
2.435                          0.997293227501221 169.572681816343 
! Gamma         0                0                
! Port Impedance         50               0                
2.44                           0.997274794940925 169.447760234675 
! Gamma         0                0                
! Port Impedance         50               0                
2.445                          0.997256161502533 169.322840534983 
! Gamma         0                0                
! Port Impedance         50               0                
2.45                           0.997237325265102 169.197920359869 
! Gamma         0                0                
! Port Impedance         50               0                
2.455                          0.997218284288646 169.072997339819 
! Gamma         0                0                
! Port Impedance         50               0                
2.46                           0.997199036612697 168.948069092782 
! Gamma         0                0                
! Port Impedance         50               0                
2.465                          0.997179580254809 168.823133223746 
! Gamma         0                0                
! Port Impedance         50               0                
2.47                           0.997159913209017 168.698187324302 
! Gamma         0                0                
! Port Impedance         50               0                
2.475                          0.997140033444246 168.573228972207 
! Gamma         0                0                
! Port Impedance         50               0                
2.48                           0.997119938902657 168.448255730939 
! Gamma         0                0                
! Port Impedance         50               0                
2.485                          0.997099627497956 168.323265149243 
! Gamma         0                0                
! Port Impedance         50               0                
2.49                           0.997079097113627 168.19825476067  
! Gamma         0                0                
! Port Impedance         50               0                
2.495                          0.997058345601118 168.073222083113 
! Gamma         0                0                
! Port Impedance         50               0                
2.5                            0.997037370777962 167.948164618326 
! Gamma         0                0                
! Port Impedance         50               0                
2.505                          0.997016170425835 167.82307985145  
! Gamma         0                0                
! Port Impedance         50               0                
2.51                           0.996994742288552 167.697965250515 
! Gamma         0                0                
! Port Impedance         50               0                
2.515                          0.996973084069989 167.572818265946 
! Gamma         0                0                
! Port Impedance         50               0                
2.52                           0.996951193431944 167.447636330055 
! Gamma         0                0                
! Port Impedance         50               0                
2.525                          0.996929067991913 167.322416856522 
! Gamma         0                0                
! Port Impedance         50               0                
2.53                           0.996906705320808 167.197157239878 
! Gamma         0                0                
! Port Impedance         50               0                
2.535                          0.996884102940582 167.071854854966 
! Gamma         0                0                
! Port Impedance         50               0                
2.54                           0.996861258321784 166.946507056397 
! Gamma         0                0                
! Port Impedance         50               0                
2.545                          0.996838168881023 166.821111178005 
! Gamma         0                0                
! Port Impedance         50               0                
2.55                           0.996814831978356 166.69566453228  
! Gamma         0                0                
! Port Impedance         50               0                
2.555                          0.99679124491458 166.570164409794 
! Gamma         0                0                
! Port Impedance         50               0                
2.56                           0.996767404928433 166.444608078626 
! Gamma         0                0                
! Port Impedance         50               0                
2.565                          0.996743309193698 166.318992783764 
! Gamma         0                0                
! Port Impedance         50               0                
2.57                           0.996718954816219 166.193315746501 
! Gamma         0                0                
! Port Impedance         50               0                
2.575                          0.996694338830799 166.067574163826 
! Gamma         0                0                
! Port Impedance         50               0                
2.58                           0.996669458198004 165.94176520779  
! Gamma         0                0                
! Port Impedance         50               0                
2.585                          0.996644309800857 165.815886024876 
! Gamma         0                0                
! Port Impedance         50               0                
2.59                           0.996618890441409 165.689933735344 
! Gamma         0                0                
! Port Impedance         50               0                
2.595                          0.996593196837208 165.563905432572 
! Gamma         0                0                
! Port Impedance         50               0                
2.6                            0.996567225617634 165.43779818238  
! Gamma         0                0                
! Port Impedance         50               0                
2.605                          0.996540973320112 165.311609022343 
! Gamma         0                0                
! Port Impedance         50               0                
2.61                           0.996514436386199 165.185334961091 
! Gamma         0                0                
! Port Impedance         50               0                
2.615                          0.996487611157531 165.058972977593 
! Gamma         0                0                
! Port Impedance         50               0                
2.62                           0.996460493871632 164.932520020429 
! Gamma         0                0                
! Port Impedance         50               0                
2.625                          0.996433080657581 164.805973007048 
! Gamma         0                0                
! Port Impedance         50               0                
2.63                           0.996405367531524 164.67932882301  
! Gamma         0                0                
! Port Impedance         50               0                
2.635                          0.996377350392037 164.552584321214 
! Gamma         0                0                
! Port Impedance         50               0                
2.64                           0.996349025015324 164.425736321108 
! Gamma         0                0                
! Port Impedance         50               0                
2.645                          0.996320387050247 164.298781607889 
! Gamma         0                0                
! Port Impedance         50               0                
2.65                           0.996291432013192 164.171716931677 
! Gamma         0                0                
! Port Impedance         50               0                
2.655                          0.996262155282744 164.044539006685 
! Gamma         0                0                
! Port Impedance         50               0                
2.66                           0.996232552094187 163.917244510358 
! Gamma         0                0                
! Port Impedance         50               0                
2.665                          0.996202617533809 163.789830082506 
! Gamma         0                0                
! Port Impedance         50               0                
2.67                           0.996172346533002 163.662292324411 
! Gamma         0                0                
! Port Impedance         50               0                
2.675                          0.996141733862167 163.534627797921 
! Gamma         0                0                
! Port Impedance         50               0                
2.68                           0.996110774124395 163.406833024523 
! Gamma         0                0                
! Port Impedance         50               0                
2.685                          0.996079461748934 163.278904484392 
! Gamma         0                0                
! Port Impedance         50               0                
2.69                           0.996047790984419 163.150838615428 
! Gamma         0                0                
! Port Impedance         50               0                
2.695                          0.996015755891871 163.022631812267 
! Gamma         0                0                
! Port Impedance         50               0                
2.7                            0.995983350337444 162.894280425273 
! Gamma         0                0                
! Port Impedance         50               0                
2.705                          0.995950567984917 162.765780759506 
! Gamma         0                0                
! Port Impedance         50               0                
2.71                           0.995917402287925 162.637129073674 
! Gamma         0                0                
! Port Impedance         50               0                
2.715                          0.995883846481906 162.50832157905  
! Gamma         0                0                
! Port Impedance         50               0                
2.72                           0.995849893575768 162.379354438381 
! Gamma         0                0                
! Port Impedance         50               0                
2.725                          0.995815536343263 162.250223764762 
! Gamma         0                0                
! Port Impedance         50               0                
2.73                           0.995780767314043 162.120925620488 
! Gamma         0                0                
! Port Impedance         50               0                
2.735                          0.995745578764408 161.991456015884 
! Gamma         0                0                
! Port Impedance         50               0                
2.74                           0.995709962707716 161.861810908102 
! Gamma         0                0                
! Port Impedance         50               0                
2.745                          0.995673910884457 161.731986199903 
! Gamma         0                0                
! Port Impedance         50               0                
2.75                           0.995637414751957 161.601977738398 
! Gamma         0                0                
! Port Impedance         50               0                
2.755                          0.995600465473732 161.47178131377  
! Gamma         0                0                
! Port Impedance         50               0                
2.76                           0.995563053908439 161.341392657966 
! Gamma         0                0                
! Port Impedance         50               0                
2.765                          0.995525170598443 161.210807443356 
! Gamma         0                0                
! Port Impedance         50               0                
2.77                           0.995486805757961 161.080021281367 
! Gamma         0                0                
! Port Impedance         50               0                
2.775                          0.995447949260783 160.94902972108  
! Gamma         0                0                
! Port Impedance         50               0                
2.78                           0.995408590627545 160.817828247798 
! Gamma         0                0                
! Port Impedance         50               0                
2.785                          0.995368719012536 160.686412281584 
! Gamma         0                0                
! Port Impedance         50               0                
2.79                           0.995328323190031 160.55477717576  
! Gamma         0                0                
! Port Impedance         50               0                
2.795                          0.995287391540121 160.422918215375 
! Gamma         0                0                
! Port Impedance         50               0                
2.8                            0.995245912034022 160.290830615636 
! Gamma         0                0                
! Port Impedance         50               0                
2.805                          0.995203872218853 160.158509520305 
! Gamma         0                0                
! Port Impedance         50               0                
2.81                           0.995161259201847 160.025950000054 
! Gamma         0                0                
! Port Impedance         50               0                
2.815                          0.995118059633984 159.89314705079  
! Gamma         0                0                
! Port Impedance         50               0                
2.82                           0.995074259693024 159.760095591928 
! Gamma         0                0                
! Port Impedance         50               0                
2.825                          0.995029845065903 159.626790464638 
! Gamma         0                0                
! Port Impedance         50               0                
2.83                           0.994984800930487 159.493226430039 