! Touchstone file exported from HFSS 2025.1.0
!        File:           C:/Users/Administrator/AppData/Local/Temp/tmp__g2y875.ansys/patch.aedt
!        Generated:      04:38:12 PM Nov 20, 2025
!        Design:         patch
!        Project:        patch
!        Setup:          Setup1
!        Solution:       Sweep1
!
# GHz S MA R 50.000000
! Terminal data exported
! Port[1] = ground_T1
2                              0.97649695311639 134.215447001918 
! Gamma         0                0                
! Port Impedance         50               0                
2.005                          0.975672033167196 133.822321799163 
! Gamma         0                0                
! Port Impedance         50               0                
2.01                           0.974809146443888 133.421817112124 
! Gamma         0                0                
! Port Impedance         50               0                
2.015                          0.973906173426295 133.013642881964 
! Gamma         0                0                
! Port Impedance         50               0                
2.02                           0.972960848297882 132.597493722487 
! Gamma         0                0                
! Port Impedance         50               0                
2.025                          0.971970747120406 132.173047913833 
! Gamma         0                0                
! Port Impedance         50               0                
2.03                           0.970933274919338 131.739966318401 
! Gamma         0                0                
! Port Impedance         50               0                
2.035                          0.969845651568772 131.297891212164 
! Gamma         0                0                
! Port Impedance         50               0                
2.04                           0.968704896352318 130.846445023886 
! Gamma         0                0                
! Port Impedance         50               0                
2.045                          0.967507811062778 130.385228974029 
! Gamma         0                0                
! Port Impedance         50               0                
2.05                           0.966250961488164 129.913821604318 
! Gamma         0                0                
! Port Impedance         50               0                
2.055                          0.964930657114675 129.431777188045 
! Gamma         0                0                
! Port Impedance         50               0                
2.06                           0.963542928858286 128.938624010234 
! Gamma         0                0                
! Port Impedance         50               0                
2.065                          0.9620835046156  128.433862505671 
! Gamma         0                0                
! Port Impedance         50               0                
2.07                           0.96054778240119 127.916963241634 
! Gamma         0                0                
! Port Impedance         50               0                
2.075                          0.958930800812682 127.387364730816 
! Gamma         0                0                
! Port Impedance         50               0                
2.08                           0.957227206536013 126.844471058499 
! Gamma         0                0                
! Port Impedance         50               0                
2.085                          0.955431218571412 126.287649306394 
! Gamma         0                0                
! Port Impedance         50               0                
2.09                           0.953536588825471 125.716226753815 
! Gamma         0                0                
! Port Impedance         50               0                
2.095                          0.951536558675919 125.129487834861 
! Gamma         0                0                
! Port Impedance         50               0                
2.1                            0.949423811073285 124.526670828153 
! Gamma         0                0                
! Port Impedance         50               0                
2.105                          0.947190417697292 123.906964253238 
! Gamma         0                0                
! Port Impedance         50               0                
2.11                           0.944827780635602 123.269502945191 
! Gamma         0                0                
! Port Impedance         50               0                
2.115                          0.942326567998467 122.613363776005 
! Gamma         0                0                
! Port Impedance         50               0                
2.12                           0.939676642825202 121.937560988189 
! Gamma         0                0                
! Port Impedance         50               0                
2.125                          0.936866984577775 121.241041102478 
! Gamma         0                0                
! Port Impedance         50               0                
2.13                           0.933885602454017 120.522677357679 
! Gamma         0                0                
! Port Impedance         50               0                
2.135                          0.930719439689533 119.781263636427 
! Gamma         0                0                
! Port Impedance         50               0                
2.14                           0.927354267955365 119.015507825912 
! Gamma         0                0                
! Port Impedance         50               0                
2.145                          0.923774570900943 118.224024557472 
! Gamma         0                0                
! Port Impedance         50               0                
2.15                           0.919963415843088 117.40532726318  
! Gamma         0                0                
! Port Impedance         50               0                
2.155                          0.915902312567845 116.557819481182 
! Gamma         0                0                
! Port Impedance         50               0                
2.16                           0.911571058200771 115.679785334351 
! Gamma         0                0                
! Port Impedance         50               0                
2.165                          0.906947567123954 114.769379098763 
! Gamma         0                0                
! Port Impedance         50               0                
2.17                           0.902007684989253 113.82461376917  
! Gamma         0                0                
! Port Impedance         50               0                
2.175                          0.896724986016231 112.843348517827 
! Gamma         0                0                
! Port Impedance         50               0                
2.18                           0.891070552995688 111.823274930118 
! Gamma         0                0                
! Port Impedance         50               0                
2.185                          0.885012739778545 110.761901884618 
! Gamma         0                0                
! Port Impedance         50               0                
2.19                           0.878516916558053 109.65653892539  
! Gamma         0                0                
! Port Impedance         50               0                
2.195                          0.871545199005414 108.50427794864  
! Gamma         0                0                
! Port Impedance         50               0                
2.2                            0.864056163364318 107.301972991677 
! Gamma         0                0                
! Port Impedance         50               0                
2.205                          0.856004551034992 106.046217865483 
! Gamma         0                0                
! Port Impedance         50               0                
2.21                           0.84734096809006 104.733321307139 
! Gamma         0                0                
! Port Impedance         50               0                
2.215                          0.838011587692144 103.359279235885 
! Gamma         0                0                
! Port Impedance         50               0                
2.22                           0.82795786668054 101.919743563433 
! Gamma         0                0                
! Port Impedance         50               0                
2.225                          0.817116291839152 100.409986815181 
! Gamma         0                0                
! Port Impedance         50               0                
2.23                           0.805418176748408 98.8248615343106 
! Gamma         0                0                
! Port Impedance         50               0                
2.235                          0.792789536870027 97.1587530202994 
! Gamma         0                0                
! Port Impedance         50               0                
2.24                           0.779151078821429 95.4055233296052 
! Gamma         0                0                
! Port Impedance         50               0                
2.245                          0.764418349842125 93.5584435371608 
! Gamma         0                0                
! Port Impedance         50               0                
2.25                           0.748502105347146 91.6101098684367 
! Gamma         0                0                
! Port Impedance         50               0                
2.255                          0.731308966196381 89.5523372278162 
! Gamma         0                0                
! Port Impedance         50               0                
2.26                           0.712742452711067 87.3760205083734 
! Gamma         0                0                
! Port Impedance         50               0                
2.265                          0.692704499162627 85.0709493098353 
! Gamma         0                0                
! Port Impedance         50               0                
2.27                           0.671097569884298 82.6255544337472 
! Gamma         0                0                
! Port Impedance         50               0                
2.275                          0.647827515733495 80.0265533601462 
! Gamma         0                0                
! Port Impedance         50               0                
2.28                           0.622807327236388 77.2584445503224 
! Gamma         0                0                
! Port Impedance         50               0                
2.285                          0.595961959780213 74.3027730690423 
! Gamma         0                0                
! Port Impedance         50               0                
2.29                           0.567234431846928 71.1370462350216 
! Gamma         0                0                
! Port Impedance         50               0                
2.295                          0.536593442817019 67.7331066064663 
! Gamma         0                0                
! Port Impedance         50               0                
2.3                            0.504042852277957 64.0546507437765 
! Gamma         0                0                
! Port Impedance         50               0                
2.305                          0.469633571232137 60.0533800156241 
! Gamma         0                0                
! Port Impedance         50               0                
2.31                           0.433478866584894 55.6629189126983 
! Gamma         0                0                
! Port Impedance         50               0                
2.315                          0.39577503750731 50.7890193691036 
! Gamma         0                0                
! Port Impedance         50               0                
2.32                           0.3568314256074  45.2934885065812 
! Gamma         0                0                
! Port Impedance         50               0                
2.325                          0.317117873897727 38.9674746047245 
! Gamma         0                0                
! Port Impedance         50               0                
2.33                           0.277346199644391 31.4873001197292 
! Gamma         0                0                
! Port Impedance         50               0                
2.335                          0.238618251571907 22.3457272069372 
! Gamma         0                0                
! Port Impedance         50               0                
2.34                           0.202695336731545 10.7699753802848 
! Gamma         0                0                
! Port Impedance         50               0                
2.345                          0.172425186523992 -4.25703624909399 
! Gamma         0                0                
! Port Impedance         50               0                
2.35                           0.152053593436157 -23.433849793322 
! Gamma         0                0                
! Port Impedance         50               0                
2.355                          0.14616011847461 -45.5718553561155 
! Gamma         0                0                
! Port Impedance         50               0                
2.36                           0.156272907152914 -67.0263220117951 
! Gamma         0                0                
! Port Impedance         50               0                
2.365                          0.17921827936083 -84.782718459787 
! Gamma         0                0                
! Port Impedance         50               0                
2.37                           0.210131156101648 -98.4758263724761 
! Gamma         0                0                
! Port Impedance         50               0                
2.375                          0.245203183768201 -109.037344806431 
! Gamma         0                0                
! Port Impedance         50               0                
2.38                           0.282042416906456 -117.428505377163 
! Gamma         0                0                
! Port Impedance         50               0                
2.385                          0.319216383785054 -124.33069184505 
! Gamma         0                0                
! Port Impedance         50               0                
2.39                           0.355856853385001 -130.185319538275 
! Gamma         0                0                
! Port Impedance         50               0                
2.395                          0.391427794199425 -135.275825623734 
! Gamma         0                0                
! Port Impedance         50               0                
2.4                            0.425598052382426 -139.787714473526 
! Gamma         0                0                
! Port Impedance         50               0                
2.405                          0.458169783342192 -143.8459472192  
! Gamma         0                0                
! Port Impedance         50               0                
2.41                           0.489035816333969 -147.537423753718 
! Gamma         0                0                
! Port Impedance         50               0                
2.415                          0.518152476850312 -150.924549858881 
! Gamma         0                0                
! Port Impedance         50               0                
2.42                           0.545521139024578 -154.053563988226 
! Gamma         0                0                
! Port Impedance         50               0                
2.425                          0.571175066735625 -156.959756648723 
! Gamma         0                0                
! Port Impedance         50               0                
2.43                           0.595169706040816 -159.670814034033 
! Gamma         0                0                
! Port Impedance         50               0                
2.435                          0.617575387359122 -162.209006052298 
! Gamma         0                0                
! Port Impedance         50               0                
2.44                           0.638471801130337 -164.592647803868 
! Gamma         0                0                
! Port Impedance         50               0                
2.445                          0.657943825406788 -166.837095395649 
! Gamma         0                0                
! Port Impedance         50               0                
2.45                           0.676078404514702 -168.955437903939 
! Gamma         0                0                
! Port Impedance         50               0                
2.455                          0.69296225144084 -170.958987719614 
! Gamma         0                0                
! Port Impedance         50               0                
2.46                           0.708680195751829 -172.857634966732 
! Gamma         0                0                
! Port Impedance         50               0                
2.465                          0.723314034686044 -174.660108857417 
! Gamma         0                0                
! Port Impedance         50               0                
2.47                           0.736941772915634 -176.374174346482 
! Gamma         0                0                
! Port Impedance         50               0                
2.475                          0.749637158977016 -178.006783101755 
! Gamma         0                0                
! Port Impedance         50               0                
2.48                           0.761469444857318 -179.564191698909 
! Gamma         0                0                
! Port Impedance         50               0                
2.485                          0.77250331047238 178.947944089005 
! Gamma         0                0                
! Port Impedance         50               0                
2.49                           0.782798907297565 177.524492737468 
! Gamma         0                0                
! Port Impedance         50               0                
2.495                          0.792411985622155 176.160783806399 
! Gamma         0                0                
! Port Impedance         50               0                
2.5                            0.801394078142126 174.852555065429 
! Gamma         0                0                
! Port Impedance         50               0                
2.505                          0.809792719196927 173.595907665759 
! Gamma         0                0                
! Port Impedance         50               0                
2.51                           0.817651684173064 172.38726771271  
! Gamma         0                0                
! Port Impedance         50               0                
2.515                          0.825011237686433 171.22335301277  
! Gamma         0                0                
! Port Impedance         50               0                
2.52                           0.831908382329401 170.101144067191 
! Gamma         0                0                
! Port Impedance         50               0                
2.525                          0.838377102207991 169.017858598566 
! Gamma         0                0                
! Port Impedance         50               0                
2.53                           0.844448597350193 167.970929052808 
! Gamma         0                0                
! Port Impedance         50               0                
2.535                          0.850151506462502 166.957982633937 
! Gamma         0                0                
! Port Impedance         50               0                
2.54                           0.855512116549058 165.97682351501  
! Gamma         0                0                
! Port Impedance         50               0                
2.545                          0.860554558667372 165.025416933696 
! Gamma         0                0                
! Port Impedance         50               0                
2.55                           0.865300989641031 164.101874931094 
! Gamma         0                0                
! Port Impedance         50               0                
2.555                          0.869771759933742 163.204443531561 
! Gamma         0                0                
! Port Impedance         50               0                
2.56                           0.873985568150599 162.331491192311 
! Gamma         0                0                
! Port Impedance         50               0                
2.565                          0.877959602802285 161.481498376499 
! Gamma         0                0                
! Port Impedance         50               0                
2.57                           0.881709672070079 160.653048123786 
! Gamma         0                0                
! Port Impedance         50               0                
2.575                          0.885250322362263 159.84481750916  
! Gamma         0                0                
! Port Impedance         50               0                
2.58                           0.888594946469782 159.055569894737 
! Gamma         0                0                
! Port Impedance         50               0                
2.585                          0.891755882121386 158.284147891056 
! Gamma         0                0                
! Port Impedance         50               0                
2.59                           0.894744501713808 157.52946695439  
! Gamma         0                0                
! Port Impedance         50               0                
2.595                          0.89757129395684 156.790509555164 
! Gamma         0                0                
! Port Impedance         50               0                
2.6                            0.900245938130634 156.066319859989 
! Gamma         0                0                
! Port Impedance         50               0                
2.605                          0.90277737160649 155.355998876227 
! Gamma         0                0                
! Port Impedance         50               0                
2.61                           0.905173851234965 154.658700013613 
! Gamma         0                0                
! Port Impedance         50               0                
2.615                          0.907443009157957 153.973625022348 
! Gamma         0                0                
! Port Impedance         50               0                
2.62                           0.909591903555607 153.300020271401 
! Gamma         0                0                
! Port Impedance         50               0                
2.625                          0.911627064795071 152.63717333455  
! Gamma         0                0                
! Port Impedance         50               0                
2.63                           0.913554537406944 151.984409855034 
! Gamma         0                0                
! Port Impedance         50               0                
2.635                          0.915379918276531 151.341090662691 
! Gamma         0                0                
! Port Impedance         50               0                
2.64                           0.917108391401431 150.706609120059 
! Gamma         0                0                
! Port Impedance         50               0                
2.645                          0.918744759533945 150.080388676301 
! Gamma         0                0                
! Port Impedance         50               0                
2.65                           0.920293472996624 149.46188060986  
! Gamma         0                0                
! Port Impedance         50               0                
2.655                          0.921758655931648 148.850561942662 
! Gamma         0                0                
! Port Impedance         50               0                
2.66                           0.92314413021963 148.2459335103   
! Gamma         0                0                
! Port Impedance         50               0                
2.665                          0.924453437280566 147.647518174149 
! Gamma         0                0                
! Port Impedance         50               0                
2.67                           0.925689857948957 147.054859162676 
! Gamma         0                0                
! Port Impedance         50               0                
2.675                          0.92685643059637 146.46751853041  
! Gamma         0                0                
! Port Impedance         50               0                
2.68                           0.92795596765776 145.885075724092 
! Gamma         0                0                
! Port Impedance         50               0                
2.685                          0.928991070702518 145.307126246477 
! Gamma         0                0                
! Port Impedance         50               0                
2.69                           0.92996414417739 144.733280409145 
! Gamma         0                0                
! Port Impedance         50               0                
2.695                          0.930877407935915 144.163162166413 
! Gamma         0                0                
! Port Impedance         50               0                
2.7                            0.931732908657719 143.59640802316  
! Gamma         0                0                
! Port Impedance         50               0                
2.705                          0.932532530250851 143.032666009971 
! Gamma         0                0                
! Port Impedance         50               0                
2.71                           0.933278003321121 142.471594719608 
! Gamma         0                0                
! Port Impedance         50               0                
2.715                          0.933970913784096 141.912862399263 
! Gamma         0                0                
! Port Impedance         50               0                
2.72                           0.934612710687912 141.356146093547 
! Gamma         0                0                
! Port Impedance         50               0                
2.725                          0.935204713308228 140.801130833558 
! Gamma         0                0                
! Port Impedance         50               0                
2.73                           0.935748117570543 140.247508867725 
! Gamma         0                0                
! Port Impedance         50               0                
2.735                          0.936244001849477 139.694978930476 
! Gamma         0                0                
! Port Impedance         50               0                
2.74                           0.93669333218957 139.143245545058 
! Gamma         0                0                
! Port Impedance         50               0                
2.745                          0.93709696698757 138.592018357109 
! Gamma         0                0                
! Port Impedance         50               0                
2.75                           0.937455661171955 138.041011495811 
! Gamma         0                0                
! Port Impedance         50               0                
2.755                          0.937770069911656 137.489942959683 
! Gamma         0                0                
! Port Impedance         50               0                
2.76                           0.938040751882422 136.938534024241 
! Gamma         0                0                
! Port Impedance         50               0                
2.765                          0.93826817211611 136.386508668942 
! Gamma         0                0                
! Port Impedance         50               0                
2.77                           0.938452704455197 135.833593020967 
! Gamma         0                0                
! Port Impedance         50               0                
2.775                          0.938594633632174 135.279514813527 
! Gamma         0                0                
! Port Impedance         50               0                
2.78                           0.938694156990924 134.724002856522 
! Gamma         0                0                
! Port Impedance         50               0                
2.785                          0.938751385864926 134.166786517442 
! Gamma         0                0                
! Port Impedance         50               0                
2.79                           0.938766346624948 133.607595210528 
! Gamma         0                0                
! Port Impedance         50               0                
2.795                          0.938738981406909 133.046157892258 
! Gamma         0                0                
! Port Impedance         50               0                
2.8                            0.938669148528699 132.482202561313 
! Gamma         0                0                
! Port Impedance         50               0                
2.805                          0.938556622603   131.915455761208 
! Gamma         0                0                
! Port Impedance         50               0                
2.81                           0.938401094351473 131.345642083835 
! Gamma         0                0                
! Port Impedance         50               0                
2.815                          0.938202170124119 130.772483672182 
! Gamma         0                0                
! Port Impedance         50               0                
2.82                           0.937959371126092 130.195699720533 
! Gamma         0                0                
! Port Impedance         50               0                
2.825                          0.937672132352858 129.615005970449 
! Gamma         0                0                
! Port Impedance         50               0                