! Touchstone file exported from HFSS 2025.1.0
!        File:           C:/Users/Administrator/AppData/Local/Temp/tmp1olwgz2h.ansys/patch.aedt
!        Generated:      10:38:26 AM Nov 14, 2025
!        Design:         patch
!        Project:        patch
!        Setup:          Setup1
!        Solution:       Sweep1
!
# GHz S MA R 50.000000
! Terminal data exported
! Port[1] = ground_T1
2                              0.992358724042102 143.426967696963 
! Gamma         0                0                
! Port Impedance         50               0                
2.005                          0.992223281866925 143.236604316176 
! Gamma         0                0                
! Port Impedance         50               0                
2.01                           0.992085529638234 143.045464219996 
! Gamma         0                0                
! Port Impedance         50               0                
2.015                          0.991945423838347 142.85353615326  
! Gamma         0                0                
! Port Impedance         50               0                
2.02                           0.991802919963684 142.660808678829 
! Gamma         0                0                
! Port Impedance         50               0                
2.025                          0.991657972493365 142.467270173291 
! Gamma         0                0                
! Port Impedance         50               0                
2.03                           0.99151053485671 142.272908822557 
! Gamma         0                0                
! Port Impedance         50               0                
2.035                          0.991360559399586 142.077712617342 
! Gamma         0                0                
! Port Impedance         50               0                
2.04                           0.991207997349582 141.881669348522 
! Gamma         0                0                
! Port Impedance         50               0                
2.045                          0.991052798779941 141.68476660237  
! Gamma         0                0                
! Port Impedance         50               0                
2.05                           0.990894912572211 141.486991755668 
! Gamma         0                0                
! Port Impedance         50               0                
2.055                          0.99073428637756 141.288331970679 
! Gamma         0                0                
! Port Impedance         50               0                
2.06                           0.990570866576696 141.088774189993 
! Gamma         0                0                
! Port Impedance         50               0                
2.065                          0.990404598238349 140.888305131223 
! Gamma         0                0                
! Port Impedance         50               0                
2.07                           0.990235425076234 140.686911281565 
! Gamma         0                0                
! Port Impedance         50               0                
2.075                          0.990063289404453 140.484578892202 
! Gamma         0                0                
! Port Impedance         50               0                
2.08                           0.989888132091264 140.281293972556 
! Gamma         0                0                
! Port Impedance         50               0                
2.085                          0.989709892511144 140.07704228438  
! Gamma         0                0                
! Port Impedance         50               0                
2.09                           0.989528508495079 139.871809335688 
! Gamma         0                0                
! Port Impedance         50               0                
2.095                          0.989343916279008 139.665580374506 
! Gamma         0                0                
! Port Impedance         50               0                
2.1                            0.989156050450348 139.458340382457 
! Gamma         0                0                
! Port Impedance         50               0                
2.105                          0.9889648438925  139.250074068159 
! Gamma         0                0                
! Port Impedance         50               0                
2.11                           0.988770227727274 139.040765860434 
! Gamma         0                0                
! Port Impedance         50               0                
2.115                          0.988572131255126 138.830399901324 
! Gamma         0                0                
! Port Impedance         50               0                
2.12                           0.988370481893128 138.618960038906 
! Gamma         0                0                
! Port Impedance         50               0                
2.125                          0.988165205110556 138.406429819898 
! Gamma         0                0                
! Port Impedance         50               0                
2.13                           0.987956224362014 138.192792482051 
! Gamma         0                0                
! Port Impedance         50               0                
2.135                          0.987743461017961 137.978030946316 
! Gamma         0                0                
! Port Impedance         50               0                
2.14                           0.987526834292556 137.762127808785 
! Gamma         0                0                
! Port Impedance         50               0                
2.145                          0.987306261168683 137.545065332388 
! Gamma         0                0                
! Port Impedance         50               0                
2.15                           0.987081656320035 137.326825438351 
! Gamma         0                0                
! Port Impedance         50               0                
2.155                          0.986852932030138 137.107389697388 
! Gamma         0                0                
! Port Impedance         50               0                
2.16                           0.986619998108163 136.886739320642 
! Gamma         0                0                
! Port Impedance         50               0                
2.165                          0.986382761801392 136.66485515034  
! Gamma         0                0                
! Port Impedance         50               0                
2.17                           0.986141127704189 136.441717650175 
! Gamma         0                0                
! Port Impedance         50               0                
2.175                          0.985894997663311 136.217306895386 
! Gamma         0                0                
! Port Impedance         50               0                
2.18                           0.9856442706794  135.991602562543 
! Gamma         0                0                
! Port Impedance         50               0                
2.185                          0.985388842804472 135.764583919008 
! Gamma         0                0                
! Port Impedance         50               0                
2.19                           0.985128607035239 135.53622981208  
! Gamma         0                0                
! Port Impedance         50               0                
2.195                          0.984863453202044 135.306518657793 
! Gamma         0                0                
! Port Impedance         50               0                
2.2                            0.984593267853236 135.07542842937  
! Gamma         0                0                
! Port Impedance         50               0                
2.205                          0.984317934134747 134.842936645312 
! Gamma         0                0                
! Port Impedance         50               0                
2.21                           0.984037331664668 134.609020357112 
! Gamma         0                0                
! Port Impedance         50               0                
2.215                          0.983751336402574 134.373656136576 
! Gamma         0                0                
! Port Impedance         50               0                
2.22                           0.983459820513353 134.136820062744 
! Gamma         0                0                
! Port Impedance         50               0                
2.225                          0.983162652225294 133.89848770839  
! Gamma         0                0                
! Port Impedance         50               0                
2.23                           0.982859695682133 133.658634126085 
! Gamma         0                0                
! Port Impedance         50               0                
2.235                          0.982550810788789 133.41723383381  
! Gamma         0                0                
! Port Impedance         50               0                
2.24                           0.982235853050481 133.174260800102 
! Gamma         0                0                
! Port Impedance         50               0                
2.245                          0.981914673404899 132.929688428716 
! Gamma         0                0                
! Port Impedance         50               0                
2.25                           0.981587118047104 132.683489542775 
! Gamma         0                0                
! Port Impedance         50               0                
2.255                          0.981253028246781 132.435636368407 
! Gamma         0                0                
! Port Impedance         50               0                
2.26                           0.980912240157495 132.186100517829 
! Gamma         0                0                
! Port Impedance         50               0                
2.265                          0.980564584617534 131.934852971875 
! Gamma         0                0                
! Port Impedance         50               0                
2.27                           0.980209886941931 131.68186406193  
! Gamma         0                0                
! Port Impedance         50               0                
2.275                          0.979847966705225 131.427103451267 
! Gamma         0                0                
! Port Impedance         50               0                
2.28                           0.979478637514485 131.170540115737 
! Gamma         0                0                
! Port Impedance         50               0                
2.285                          0.979101706772131 130.912142323814 
! Gamma         0                0                
! Port Impedance         50               0                
2.29                           0.978716975427999 130.651877615956 
! Gamma         0                0                
! Port Impedance         50               0                
2.295                          0.978324237720137 130.389712783251 
! Gamma         0                0                
! Port Impedance         50               0                
2.3                            0.977923280903733 130.125613845333 
! Gamma         0                0                
! Port Impedance         50               0                
2.305                          0.977513884967564 129.859546027526 
! Gamma         0                0                
! Port Impedance         50               0                
2.31                           0.977095822337334 129.591473737199 
! Gamma         0                0                
! Port Impedance         50               0                
2.315                          0.976668857565207 129.321360539288 
! Gamma         0                0                
! Port Impedance         50               0                
2.32                           0.976232747004811 129.049169130954 
! Gamma         0                0                
! Port Impedance         50               0                
2.325                          0.975787238470957 128.774861315355 
! Gamma         0                0                
! Port Impedance         50               0                
2.33                           0.975332070883257 128.49839797448  
! Gamma         0                0                
! Port Impedance         50               0                
2.335                          0.974866973892794 128.219739041015 
! Gamma         0                0                
! Port Impedance         50               0                
2.34                           0.974391667490924 127.938843469205 
! Gamma         0                0                
! Port Impedance         50               0                
2.345                          0.973905861599263 127.655669204663 
! Gamma         0                0                
! Port Impedance         50               0                
2.35                           0.973409255639832 127.370173153092 
! Gamma         0                0                
! Port Impedance         50               0                
2.355                          0.972901538084298 127.082311147869 
! Gamma         0                0                
! Port Impedance         50               0                
2.36                           0.972382385981142 126.79203791645  
! Gamma         0                0                
! Port Impedance         50               0                
2.365                          0.971851464459575 126.499307045545 
! Gamma         0                0                
! Port Impedance         50               0                
2.37                           0.971308426208892 126.204070945012 
! Gamma         0                0                
! Port Impedance         50               0                
2.375                          0.970752910931915 125.906280810421 
! Gamma         0                0                
! Port Impedance         50               0                
2.38                           0.970184544771077 125.605886584231 
! Gamma         0                0                
! Port Impedance         50               0                
2.385                          0.96960293970561 125.302836915522 
! Gamma         0                0                
! Port Impedance         50               0                
2.39                           0.969007692918214 124.997079118229 
! Gamma         0                0                
! Port Impedance         50               0                
2.395                          0.968398386129468 124.688559127804 
! Gamma         0                0                
! Port Impedance         50               0                
2.4                            0.967774584898155 124.37722145626  
! Gamma         0                0                
! Port Impedance         50               0                
2.405                          0.967135837885549 124.063009145511 
! Gamma         0                0                
! Port Impedance         50               0                
2.41                           0.966481676081573 123.745863718953 
! Gamma         0                0                
! Port Impedance         50               0                
2.415                          0.965811611990651 123.425725131205 
! Gamma         0                0                
! Port Impedance         50               0                
2.42                           0.965125138774886 123.102531715942 
! Gamma         0                0                
! Port Impedance         50               0                
2.425                          0.964421729352075 122.776220131733 
! Gamma         0                0                
! Port Impedance         50               0                
2.43                           0.963700835445918 122.446725305816 
! Gamma         0                0                
! Port Impedance         50               0                
2.435                          0.96296188658559 122.113980375709 
! Gamma         0                0                
! Port Impedance         50               0                
2.44                           0.962204289051668 121.77791662859  
! Gamma         0                0                
! Port Impedance         50               0                
2.445                          0.961427424765224 121.438463438337 
! Gamma         0                0                
! Port Impedance         50               0                
2.45                           0.960630650116681 121.09554820015  
! Gamma         0                0                
! Port Impedance         50               0                
2.455                          0.959813294730788 120.749096262647 
! Gamma         0                0                
! Port Impedance         50               0                
2.46                           0.958974660163873 120.399030857349 
! Gamma         0                0                
! Port Impedance         50               0                
2.465                          0.958114018529246 120.045273025433 
! Gamma         0                0                
! Port Impedance         50               0                
2.47                           0.957230611046371 119.687741541668 
! Gamma         0                0                
! Port Impedance         50               0                
2.475                          0.956323646509135 119.326352835412 
! Gamma         0                0                
! Port Impedance         50               0                
2.48                           0.955392299668229 118.961020908569 
! Gamma         0                0                
! Port Impedance         50               0                
2.485                          0.954435709522336 118.591657250383 
! Gamma         0                0                
! Port Impedance         50               0                
2.49                           0.953452977512464 118.218170748972 
! Gamma         0                0                
! Port Impedance         50               0                
2.495                          0.952443165613386 117.840467599467 
! Gamma         0                0                
! Port Impedance         50               0                
2.5                            0.951405294315747 117.458451208653 
! Gamma         0                0                
! Port Impedance         50               0                
2.505                          0.950338340491986 117.072022095987 
! Gamma         0                0                
! Port Impedance         50               0                
2.51                           0.949241235138737 116.681077790874 
! Gamma         0                0                
! Port Impedance         50               0                
2.515                          0.948112860987916 116.285512726101 
! Gamma         0                0                
! Port Impedance         50               0                
2.52                           0.946952049978153 115.885218127286 
! Gamma         0                0                
! Port Impedance         50               0                
2.525                          0.945757580577708 115.480081898258 
! Gamma         0                0                
! Port Impedance         50               0                
2.53                           0.944528174949391 115.069988502244 
! Gamma         0                0                
! Port Impedance         50               0                
2.535                          0.943262495947398 114.65481883877  
! Gamma         0                0                
! Port Impedance         50               0                
2.54                           0.941959143935301 114.23445011618  
! Gamma         0                0                
! Port Impedance         50               0                
2.545                          0.940616653413724 113.808755719693 
! Gamma         0                0                
! Port Impedance         50               0                
2.55                           0.939233489445496 113.377605074921 
! Gamma         0                0                
! Port Impedance         50               0                
2.555                          0.937808043865251 112.940863506809 
! Gamma         0                0                
! Port Impedance         50               0                
2.56                           0.936338631259637 112.498392093947 
! Gamma         0                0                
! Port Impedance         50               0                
2.565                          0.934823484703373 112.050047518251 
! Gamma         0                0                
! Port Impedance         50               0                
2.57                           0.933260751235484 111.595681910033 
! Gamma         0                0                
! Port Impedance         50               0                
2.575                          0.931648487059032 111.135142688506 
! Gamma         0                0                
! Port Impedance         50               0                
2.58                           0.929984652446645 110.668272397828 
! Gamma         0                0                
! Port Impedance         50               0                
2.585                          0.92826710633305 110.194908538805 
! Gamma         0                0                
! Port Impedance         50               0                
2.59                           0.926493600574685 109.714883396487 
! Gamma         0                0                
! Port Impedance         50               0                
2.595                          0.924661773855298 109.22802386388  
! Gamma         0                0                
! Port Impedance         50               0                
2.6                            0.922769145215226 108.734151262161 
! Gamma         0                0                
! Port Impedance         50               0                
2.605                          0.920813107180791 108.233081157807 
! Gamma         0                0                
! Port Impedance         50               0                
2.61                           0.918790918468983 107.7246231772   
! Gamma         0                0                
! Port Impedance         50               0                
2.615                          0.916699696241313 107.208580819387 
! Gamma         0                0                
! Port Impedance         50               0                
2.62                           0.914536407879424 106.684751267811 
! Gamma         0                0                
! Port Impedance         50               0                
2.625                          0.912297862253767 106.152925202025 
! Gamma         0                0                
! Port Impedance         50               0                
2.63                           0.909980700455419 105.612886610603 
! Gamma         0                0                
! Port Impedance         50               0                
2.635                          0.907581385959937 105.064412606666 
! Gamma         0                0                
! Port Impedance         50               0                
2.64                           0.905096194191057 104.507273247785 
! Gamma         0                0                
! Port Impedance         50               0                
2.645                          0.902521201451114 103.941231362271 
! Gamma         0                0                
! Port Impedance         50               0                
2.65                           0.899852273184292 103.366042384304 
! Gamma         0                0                
! Port Impedance         50               0                
2.655                          0.897085051538303 102.781454200749 
! Gamma         0                0                
! Port Impedance         50               0                
2.66                           0.894214942189922 102.187207013039 
! Gamma         0                0                
! Port Impedance         50               0                
2.665                          0.891237100399996 101.583033218101 
! Gamma         0                0                
! Port Impedance         50               0                
2.67                           0.888146416264312 100.968657312981 
! Gamma         0                0                
! Port Impedance         50               0                
2.675                          0.884937499128078 100.343795828654 
! Gamma         0                0                
! Port Impedance         50               0                
2.68                           0.881604661133947 99.708157299427  
! Gamma         0                0                
! Port Impedance         50               0                
2.685                          0.878141899876696 99.0614422754663 
! Gamma         0                0                
! Port Impedance         50               0                
2.69                           0.874542880142   98.4033433872337 
! Gamma         0                0                
! Port Impedance         50               0                
2.695                          0.870800914712591 97.7335454721487 
! Gamma         0                0                
! Port Impedance         50               0                
2.7                            0.866908944232666 97.0517257755201 
! Gamma         0                0                
! Port Impedance         50               0                
2.705                          0.862859516131091 96.3575542398472 
! Gamma         0                0                
! Port Impedance         50               0                
2.71                           0.858644762616237 95.6506938989887 
! Gamma         0                0                
! Port Impedance         50               0                
2.715                          0.85425637777057 94.9308013965001 
! Gamma         0                0                
! Port Impedance         50               0                
2.72                           0.849685593792064 94.1975276507378 
! Gamma         0                0                
! Port Impedance         50               0                
2.725                          0.844923156452775 93.4505186931915 
! Gamma         0                0                
! Port Impedance         50               0                
2.73                           0.839959299873301 92.6894167110528 
! Gamma         0                0                
! Port Impedance         50               0                
2.735                          0.834783720746264 91.9138613303835 
! Gamma         0                0                
! Port Impedance         50               0                
2.74                           0.829385552183524 91.123491182557  
! Gamma         0                0                
! Port Impedance         50               0                
2.745                          0.823753337411722 90.3179458041089 
! Gamma         0                0                
! Port Impedance         50               0                
2.75                           0.817875003600416 89.49686792896   
! Gamma         0                0                
! Port Impedance         50               0                
2.755                          0.811737836178158 88.6599062424525 
! Gamma         0                0                
! Port Impedance         50               0                
2.76                           0.805328454076154 87.806718679092  
! Gamma         0                0                
! Port Impedance         50               0                
2.765                          0.798632786438784 86.9369763607386 
! Gamma         0                0                
! Port Impedance         50               0                
2.77                           0.791636051457561 86.0503682897363 
! Gamma         0                0                
! Port Impedance         50               0                
2.775                          0.784322738122702 85.1466069327537 
! Gamma         0                0                
! Port Impedance         50               0                
2.78                           0.776676591847292 84.2254348567168 
! Gamma         0                0                
! Port Impedance         50               0                
2.785                          0.768680605106258 83.2866326091365 
! Gamma         0                0                
! Port Impedance         50               0                
2.79                           0.76031701444953 82.3300280726314 
! Gamma         0                0                
! Port Impedance         50               0                
2.795                          0.751567305499731 81.3555075691116 
! Gamma         0                0                
! Port Impedance         50               0                
2.8                            0.742412227833641 80.3630290449755 
! Gamma         0                0                
! Port Impedance         50               0                
2.805                          0.732831821978024 79.3526377374234 
! Gamma         0                0                
! Port Impedance         50               0                
2.81                           0.722805461129144 78.3244848070408 
! Gamma         0                0                
! Port Impedance         50               0                
2.815                          0.712311910636807 77.2788495276648 
! Gamma         0                0                
! Port Impedance         50               0                
2.82                           0.70132940878425 76.2161657571586 
! Gamma         0                0                
! Port Impedance         50               0                
2.825                          0.689835772951937 75.1370535799824 
! Gamma         0                0                
! Port Impedance         50               0                
2.83                           0.67780853588542 74.0423572249515 